LAMMPS data file via write_data, version 7 Aug 2019, timestep = 0

800 atoms
1 atom types

0.0000000000000000e+00 1.0000000000000000e+01 xlo xhi
0.0000000000000000e+00 1.0000000000000000e+01 ylo yhi
0.0000000000000000e+00 1.0000000000000000e+01 zlo zhi

Masses

1 1

Atoms # atomic

1 1 4.9077542754391930e+00 4.6261073065111908e+00 9.8550053359265466e-01 0 0 0
2 1 3.6803057806940309e+00 4.8992561245799324e+00 1.7976858149271857e+00 0 0 0
3 1 2.4890933849332360e+00 4.1925205728935637e+00 3.6932686221288833e+00 0 0 0
4 1 3.8968785637509447e+00 4.8380209621219059e+00 2.6183103828776213e+00 0 0 0
5 1 3.9818430663933246e+00 2.8364168726077383e+00 1.6583779182556913e+00 0 0 0
6 1 3.2957432387842536e+00 1.5566142469442514e+00 2.0156483920363937e+00 0 0 0
7 1 4.0771635640771891e+00 4.8880214453153412e+00 2.9764314149396642e+00 0 0 0
8 1 2.4349702719761850e+00 4.5453611037439483e+00 3.8840706245433871e+00 0 0 0
9 1 4.9854496610283148e+00 4.5245290289281537e-01 4.3759389195479166e+00 0 0 0
10 1 2.4537682637822664e+00 4.8320938855559070e-01 1.3001934538130620e+00 0 0 0
11 1 1.1346822563254657e+00 6.0468206210279940e-01 2.8914177617483854e+00 0 0 0
12 1 1.7577223022271518e-01 4.2038733531738979e+00 4.4994467936919289e+00 0 0 0
13 1 4.2919105171653955e+00 4.1400619988050602e+00 2.0220139166442741e+00 0 0 0
14 1 4.9850902263937007e+00 4.4114349989273745e+00 2.9880269723888615e+00 0 0 0
15 1 4.4880240571163705e+00 2.2032795484193041e-01 3.0519370283242022e+00 0 0 0
16 1 3.9056350448660715e+00 2.0081990640648635e+00 1.8016697381630864e+00 0 0 0
17 1 7.2372678235346766e-01 3.6760310147311683e+00 3.0532645867454189e+00 0 0 0
18 1 3.6475223738921447e+00 3.9085380052721770e+00 7.9825460947968740e-01 0 0 0
19 1 2.6824119420174561e+00 3.2975094873912210e+00 1.2419545842529995e+00 0 0 0
20 1 1.2840184621904132e+00 4.9829403427350061e-01 4.8278340347240842e+00 0 0 0
21 1 4.3780380647527233e+00 1.6857542990174861e+00 2.4725035868922731e+00 0 0 0
22 1 6.9561514104512290e-01 1.2036755453812311e+00 1.7489122234978305e-01 0 0 0
23 1 6.6115648982168940e-01 2.0571244331342746e+00 4.0903476877558731e+00 0 0 0
24 1 4.4826687893283870e+00 2.1434224220660619e-01 2.4500647664303261e+00 0 0 0
25 1 9.0519236442874754e-02 1.3568068953961165e+00 3.8534909225318073e+00 0 0 0
26 1 3.7296827527366965e+00 4.7780252456562708e+00 4.2703037449486105e+00 0 0 0
27 1 9.9504135129742388e-01 3.6599912558030296e+00 3.4730362815191205e+00 0 0 0
28 1 3.9634428098627565e+00 3.5833053633492931e+00 4.6132418115684963e+00 0 0 0
29 1 2.4396496184354879e+00 3.1911370452452159e+00 3.4403194363416727e+00 0 0 0
30 1 3.2290635552392639e+00 8.7117290630525579e-01 1.8030362724340689e+00 0 0 0
31 1 2.2921020641420511e-01 2.3359392035454229e+00 1.3019398792190195e-01 0 0 0
32 1 2.7134059475331593e+00 4.2137601898115875e+00 6.6751016334980262e-01 0 0 0
33 1 1.0164737007657410e+00 3.8734887698076150e+00 1.7257541565810117e+00 0 0 0
34 1 3.9871710464298586e+00 2.3837773466407217e+00 4.1458649906077731e+00 0 0 0
35 1 1.3466601173145045e+00 3.3165917048773692e+00 1.9567838739402519e+00 0 0 0
36 1 4.0674670990870645e+00 1.9195343562958456e+00 1.6139262642776251e+00 0 0 0
37 1 3.7985235004678941e+00 1.7844723639006133e+00 1.6270200776062069e+00 0 0 0
38 1 4.1561085284483195e+00 1.7160376309026206e+00 1.4444625803476492e+00 0 0 0
39 1 2.0237644771224654e+00 3.4095669972754861e+00 4.5925232090952450e+00 0 0 0
40 1 4.7536672534205335e+00 4.8855282389025803e+00 1.0731112356638124e+00 0 0 0
41 1 4.3429017832236836e+00 1.1502706404543810e+00 2.5986541167826642e+00 0 0 0
42 1 1.8214715327236202e+00 3.4720504858866570e+00 4.7525162970426109e+00 0 0 0
43 1 1.0914982208476860e+00 4.8105977870573282e+00 1.7170070725106668e+00 0 0 0
44 1 1.9463193751621617e+00 1.7897383504499396e+00 1.3245601213185862e-01 0 0 0
45 1 2.3348281077737121e+00 1.4560073527768289e+00 1.1155781201625141e+00 0 0 0
46 1 4.2263434567611400e+00 2.1544777844820535e+00 3.0812378987116917e-01 0 0 0
47 1 1.8999107237439186e+00 1.7995339640414034e+00 4.7673336438682554e+00 0 0 0
48 1 1.3567385921984627e+00 2.7055190795592585e+00 1.6591701524607698e+00 0 0 0
49 1 3.8639303035400485e+00 1.0766115975922959e+00 4.6111207337170468e+00 0 0 0
50 1 8.2789106333064422e-01 4.3651013981388420e+00 4.2591985195219513e+00 0 0 0
51 1 1.7315742055566861e+00 2.5676727912238206e+00 4.8766020987539562e+00 0 0 0
52 1 1.0514737577417277e+00 2.1194463652183519e+00 1.5350602248381173e+00 0 0 0
53 1 3.1023576544143063e+00 1.3250977412448719e+00 9.1773710256337060e-01 0 0 0
54 1 9.3358905563763761e-01 8.3125810177589676e-01 9.5491654749722987e-01 0 0 0
55 1 3.0845294394923979e+00 1.6862895487278184e+00 1.4684454684464474e+00 0 0 0
56 1 1.2651673477446510e+00 3.6676135443465845e+00 1.5808398330494946e+00 0 0 0
57 1 4.7862102160166060e+00 1.8351005911059215e+00 2.5356347172221332e+00 0 0 0
58 1 2.1300879363576359e+00 3.8794636278783268e-01 2.1451937510376767e-01 0 0 0
59 1 4.2304651039794390e+00 1.4270025824322377e+00 3.6324029386194434e+00 0 0 0
60 1 3.5962566517276024e+00 2.2855455858099951e+00 3.1646607085897873e+00 0 0 0
61 1 4.7208066586036268e-01 4.2597511151152432e+00 3.6369917418980000e+00 0 0 0
62 1 3.8080810121298214e-01 2.4175708659075065e-01 3.2113543307461563e+00 0 0 0
63 1 9.4904786020007348e-01 6.4738638263539705e-01 6.2293295311878105e-01 0 0 0
64 1 2.3367163410115595e+00 3.1915433812847098e+00 2.6960925211646092e-01 0 0 0
65 1 1.3227003213589548e+00 6.2430107995136697e-01 2.6282507426236994e+00 0 0 0
66 1 5.8100285035604737e-01 4.9149059340892851e+00 4.8240342386178829e+00 0 0 0
67 1 3.4446490618608188e+00 4.2167826947834266e+00 1.4667512250443693e+00 0 0 0
68 1 2.2456117729868792e+00 1.9970685904831944e+00 4.7318002510498278e+00 0 0 0
69 1 1.1799249384458759e+00 9.9844045983554808e-01 7.8880845605805905e-01 0 0 0
70 1 1.0019776322888105e+00 2.3806587804018792e-01 1.1732122214386296e+00 0 0 0
71 1 4.9821045505730925e+00 4.2311814819607800e+00 3.4671673148251920e+00 0 0 0
72 1 1.7666812063039659e+00 2.6110343507542435e+00 3.6543331265702532e+00 0 0 0
73 1 4.9320102552566727e+00 2.2963600988948532e+00 4.9241821257975795e+00 0 0 0
74 1 4.5376566911757257e+00 4.3960085904207116e+00 3.7163792009076007e+00 0 0 0
75 1 1.1852296540444855e+00 1.5479552566762805e-01 1.6483998958246782e+00 0 0 0
76 1 4.6570491253664015e+00 1.0246500331091928e+00 1.2931064662025806e+00 0 0 0
77 1 3.2403774667719274e+00 1.0240840357840453e+00 1.7803894224485335e+00 0 0 0
78 1 7.1355378754136789e-01 2.6985072077710681e+00 3.8106410083410518e+00 0 0 0
79 1 3.9638501331041800e+00 4.2918708195406341e-01 3.3472864019439026e+00 0 0 0
80 1 4.5513729725737928e+00 4.9255500477391996e+00 3.7196523527240628e+00 0 0 0
81 1 4.7803443273437880e+00 3.2471096670474435e+00 4.1721740663853355e+00 0 0 0
82 1 3.0584403886731906e+00 3.2076124303078335e+00 3.4211618376063008e-01 0 0 0
83 1 1.1509580962131536e+00 4.1527230544726939e+00 4.8163765225635728e+00 0 0 0
84 1 2.1475844886841182e+00 4.4525013139715890e+00 3.1895839204963221e+00 0 0 0
85 1 3.9936490934312574e+00 1.2603132991401076e+00 2.0856186477866108e+00 0 0 0
86 1 1.2444070127068121e+00 4.7486625633894759e+00 7.7170288691842126e-01 0 0 0
87 1 2.4063405592024051e-01 4.3365778514820050e+00 4.8639498580544958e+00 0 0 0
88 1 1.5638482438232044e+00 3.5974339365947214e+00 2.0721723474898246e+00 0 0 0
89 1 3.7562487571296508e+00 1.2728610780429381e+00 2.9761386676580361e+00 0 0 0
90 1 2.6055389747980700e+00 1.2935494311589513e+00 6.8528948849313398e-01 0 0 0
91 1 3.1358663007318350e+00 4.5049163999524513e+00 4.1299340008431740e+00 0 0 0
92 1 2.1736562960658485e+00 2.6413679787150435e+00 3.4716182637361892e+00 0 0 0
93 1 3.7811960809776539e+00 5.6253299143283297e-01 4.4919870116244942e+00 0 0 0
94 1 3.4684051635993667e+00 3.4855846145588831e+00 2.2206168911515816e+00 0 0 0
95 1 4.3816336404446670e+00 2.1165949535167754e+00 3.6113837564417084e+00 0 0 0
96 1 4.7862414292927091e-01 4.2359702122565217e+00 3.9513573953655352e+00 0 0 0
97 1 1.6412694014801035e+00 4.8148306761006037e+00 2.8591732228450351e+00 0 0 0
98 1 1.5852066183393851e+00 2.5676344300469545e+00 4.2318657991624740e+00 0 0 0
99 1 3.9218083973609880e-01 1.3833734446127777e+00 3.5748360695200210e-01 0 0 0
100 1 8.3062209693278277e-01 2.6558314928113630e-01 3.6559899680577175e+00 0 0 0
101 1 2.7500711161410769e+00 4.4524898307642385e-01 3.2996585654558883e+00 0 0 0
102 1 4.9445148207920209e+00 2.4605930514915815e+00 5.1874164190084748e+00 0 0 0
103 1 5.1770114363995434e-01 1.0031211567125848e+00 9.4572808684116598e+00 0 0 0
104 1 3.6801520891860835e+00 2.3161629505065098e+00 7.7507091629089366e+00 0 0 0
105 1 3.2826413974550746e+00 1.3539670274378579e+00 6.1238301480765598e+00 0 0 0
106 1 2.7657321201477814e+00 3.6597433237637129e+00 9.3060424967231423e+00 0 0 0
107 1 4.3781888971003653e+00 4.2207935658380356e+00 8.8774610398697948e+00 0 0 0
108 1 3.6183983570050438e-01 1.4421186183775396e+00 7.6876190713083457e+00 0 0 0
109 1 4.3191196044530340e+00 1.4431920421510895e+00 5.7286524333658875e+00 0 0 0
110 1 1.4614475804667211e+00 2.5494849041800411e+00 9.1927845539491546e+00 0 0 0
111 1 1.6924245989380517e+00 4.5802343518381168e+00 9.9987513432273403e+00 0 0 0
112 1 3.4307512284399717e+00 6.3589639060008163e-01 7.5106368155733847e+00 0 0 0
113 1 1.2729593418878313e+00 4.6276591087820282e+00 7.0666412995507200e+00 0 0 0
114 1 4.8225775616348612e+00 3.0610783971199202e+00 7.5446203944946735e+00 0 0 0
115 1 1.4882170741857110e+00 2.4643658392431056e+00 8.5966601588747746e+00 0 0 0
116 1 4.7743865776687802e+00 3.1152108791820754e+00 7.3492464131439315e+00 0 0 0
117 1 2.1419717614268752e+00 1.1939430149243879e-01 6.6600251834187771e+00 0 0 0
118 1 1.0478115179798619e+00 5.6818268753969237e-01 9.4464294796094439e+00 0 0 0
119 1 1.4916799643503875e+00 6.6516083696166084e-01 9.3581868146351468e+00 0 0 0
120 1 3.0457935729277290e+00 6.5258019634176989e-01 7.9153599161260582e+00 0 0 0
121 1 3.4541103306478407e+00 3.2323271982522344e+00 5.7232210253007807e+00 0 0 0
122 1 2.2022615802484853e+00 3.4103792362894763e+00 8.2438243172335550e+00 0 0 0
123 1 3.9878970403167866e+00 4.5855566042408142e+00 9.4498474753693902e+00 0 0 0
124 1 1.5620281694280114e+00 3.0074435765889680e+00 6.1041917307787541e+00 0 0 0
125 1 1.3462873647670670e-01 2.7051739640092354e+00 5.8588131032226665e+00 0 0 0
126 1 7.7184626868546302e-01 2.4202377965768043e+00 6.9366470663513278e+00 0 0 0
127 1 1.5542787460397365e+00 2.7628846898502135e+00 5.8029823125353932e+00 0 0 0
128 1 3.5306975401615248e+00 4.3355749474538374e-01 6.8008141856644366e+00 0 0 0
129 1 1.4066216076755065e+00 1.0893602022385971e+00 8.8769190241009550e+00 0 0 0
130 1 4.2019797508614043e-01 2.2673672727622871e+00 7.6417533157587769e+00 0 0 0
131 1 4.9479779577571801e+00 6.6553602491763231e-01 5.6639707906469567e+00 0 0 0
132 1 3.6611159349144979e+00 2.3755181079616388e+00 5.3328405112646706e+00 0 0 0
133 1 1.7845464366416197e+00 2.8719606357030387e+00 9.0424042609717716e+00 0 0 0
134 1 4.3411131456220122e+00 1.0886384691524500e+00 6.7467510452246060e+00 0 0 0
135 1 2.6448170899622219e+00 1.4408309950683409e+00 6.0465341136076178e+00 0 0 0
136 1 1.5881010385174774e+00 1.2141543632439125e+00 6.2923830404376533e+00 0 0 0
137 1 3.6306307993971885e+00 1.1845468548985882e-02 9.0867899028057195e+00 0 0 0
138 1 1.6778964557116369e+00 4.0573114548145384e-01 9.1233621067941932e+00 0 0 0
139 1 3.6189920378937352e+00 4.3991808800022962e+00 7.0330501985890095e+00 0 0 0
140 1 8.3960742263105115e-01 1.2819521600762160e+00 5.7699544009612662e+00 0 0 0
141 1 1.8388090198108968e+00 4.8631959617432186e+00 5.7345290182784803e+00 0 0 0
142 1 1.7916064112408117e+00 1.5289537243214222e+00 7.1252446701402050e+00 0 0 0
143 1 1.2162248469964716e+00 1.0910034696995297e+00 6.4953152399953993e+00 0 0 0
144 1 1.1491597542302494e+00 3.9279893478043326e+00 7.7169685474210272e+00 0 0 0
145 1 8.9201039210521160e-01 2.0186601122928134e+00 7.6205073053112748e+00 0 0 0
146 1 4.9307678104055892e+00 1.4145894867435980e+00 5.0055036996516877e+00 0 0 0
147 1 1.1098666028631230e+00 3.5279943205080899e+00 5.0005447794685809e+00 0 0 0
148 1 3.8300541061116631e+00 1.7193614187274879e+00 7.3073645528905864e+00 0 0 0
149 1 4.8760404320787822e+00 1.6115419481003388e+00 5.1855217223919556e+00 0 0 0
150 1 5.7789105017571296e-01 2.6148803032072636e+00 8.2932560044775059e+00 0 0 0
151 1 4.3835660416556363e+00 4.5944621062811750e+00 9.1246202677137305e+00 0 0 0
152 1 1.6606766412317178e+00 9.9230918148174374e-01 7.7404131636677374e+00 0 0 0
153 1 4.0609724978268948e+00 2.7647709766238791e+00 7.5058041175388741e+00 0 0 0
154 1 1.6356286460699647e+00 1.0654497896625892e-02 9.0701461485913697e+00 0 0 0
155 1 4.6880983862504824e+00 2.8695777118530019e+00 8.9926031134056874e+00 0 0 0
156 1 2.0468302965382255e+00 1.0767939179562005e+00 7.6753790898599563e+00 0 0 0
157 1 3.7004118802493491e-02 1.9282247135081443e+00 7.6727599313821457e+00 0 0 0
158 1 1.5691467055907224e+00 2.6486808632727161e+00 6.3792690245338104e+00 0 0 0
159 1 2.8149112513358294e+00 2.1340120128048640e-01 6.6339899211348916e+00 0 0 0
160 1 5.7731922742785852e-02 3.0042553800178018e-01 9.2520171959195370e+00 0 0 0
161 1 4.3495176054302220e+00 2.3423944657400226e+00 8.6237856925575933e+00 0 0 0
162 1 7.0050404905365049e-01 3.3715524447018059e+00 5.6819381032520617e+00 0 0 0
163 1 3.7325633288047104e+00 3.1918672207705057e+00 5.7123794898914078e+00 0 0 0
164 1 2.5970175408744334e-01 4.8073809476603664e+00 7.6515873277800095e+00 0 0 0
165 1 2.6793596999157963e+00 1.9984764847897349e+00 8.3942798610750025e+00 0 0 0
166 1 2.6616250875692931e+00 3.9328467771098237e+00 9.3557828848044302e+00 0 0 0
167 1 3.2322368506492287e+00 4.2047488615870234e+00 9.2141166931083980e+00 0 0 0
168 1 1.5335547372389375e+00 4.4544687748208958e+00 6.2566984148028766e+00 0 0 0
169 1 3.0102312765131849e+00 2.9570643571005499e+00 9.3806497889480784e+00 0 0 0
170 1 1.2994746916459290e+00 2.7114249312837724e-01 7.0918820086363157e+00 0 0 0
171 1 1.6703137297510697e+00 2.9628559262318799e+00 6.7195521792022284e+00 0 0 0
172 1 3.5053148230096860e+00 3.8262303237925428e+00 7.4530519812614902e+00 0 0 0
173 1 3.9252239251161103e+00 1.2385094264701517e+00 5.6279306838418961e+00 0 0 0
174 1 4.7136790932685511e+00 2.8045205645284241e+00 5.5771280292315071e+00 0 0 0
175 1 2.6810602669981587e+00 5.7990743805650036e-01 6.5043114156016664e+00 0 0 0
176 1 2.8996821133884056e+00 4.9572797189267721e+00 7.0002360022627919e+00 0 0 0
177 1 7.2898827992798221e-01 2.1060207495959569e+00 5.8907384592530967e+00 0 0 0
178 1 3.1042858087943337e+00 3.7315884063633105e+00 6.8063457481592637e+00 0 0 0
179 1 4.9035100708266297e+00 3.2937603831727804e+00 8.2307599849210860e+00 0 0 0
180 1 2.1159374071825003e+00 2.5600025162845865e+00 5.9622911950397732e+00 0 0 0
181 1 1.0538583859120767e+00 2.1978920242739339e+00 9.9712519720062858e+00 0 0 0
182 1 2.0582478689301049e+00 2.9719331082757252e+00 9.2797507901116045e+00 0 0 0
183 1 3.3058471806840259e+00 1.3735657564241279e+00 5.5196682203186995e+00 0 0 0
184 1 3.2012175643822260e+00 2.8636045720724415e+00 8.6020428215163030e+00 0 0 0
185 1 4.3305902389486270e+00 4.2301460095821630e+00 6.0639830474108383e+00 0 0 0
186 1 3.9514775918570710e+00 2.4838863417896846e+00 6.6777464592260056e+00 0 0 0
187 1 2.8847402114815730e+00 3.8287343708000772e+00 9.5385700368967701e+00 0 0 0
188 1 4.0996700451242134e+00 3.1544484026517945e+00 6.8143033687091918e+00 0 0 0
189 1 2.0890507111740537e+00 6.7530270231668965e-01 9.8125178366026446e+00 0 0 0
190 1 2.2438672381657490e-01 1.2676671851741463e+00 5.6823812218766570e+00 0 0 0
191 1 5.0933346176023286e-01 3.6749180423444688e-01 6.4347537683484859e+00 0 0 0
192 1 1.9589318623575065e+00 3.7678106426111473e+00 5.5934703655510543e+00 0 0 0
193 1 2.7604520333746692e+00 4.9173249280626532e+00 5.4800659490190746e+00 0 0 0
194 1 6.7795959798524141e-01 4.4669633379517881e+00 6.2528209557071426e+00 0 0 0
195 1 4.9332489841306808e+00 3.1156762843558923e+00 5.1713111694768585e+00 0 0 0
196 1 4.2268253975672767e+00 2.5445691321718361e-01 6.6573404412052319e+00 0 0 0
197 1 2.0028994753970295e+00 2.7314829978772828e+00 8.0347453234879040e+00 0 0 0
198 1 1.4570015489389196e-02 4.8782503301642137e+00 8.7532990699416491e+00 0 0 0
199 1 4.1488955934294012e+00 4.8823876794811283e-01 5.8289729039319660e+00 0 0 0
200 1 1.3547999930357559e+00 1.2348295195190373e-01 5.3779734556460639e+00 0 0 0
201 1 2.1324580079561368e+00 2.2173971879377016e-01 6.7794537668952035e+00 0 0 0
202 1 2.2794602076893025e+00 8.8771063410104756e-01 9.7526273363049256e+00 0 0 0
203 1 1.2554740678777332e+00 7.5265882106156035e-01 9.9368055816445526e+00 0 0 0
204 1 3.1190406266222896e+00 1.7158116408231723e+00 7.6462473150558061e+00 0 0 0
205 1 4.6374390854674574e-01 4.1438709451555606e+00 6.0389752295049721e+00 0 0 0
206 1 4.3793098788612097e+00 3.0611340203607145e+00 8.4794802025330629e+00 0 0 0
207 1 4.6237639731838200e+00 1.6010973004629359e+00 9.6423288805607381e+00 0 0 0
208 1 3.3074680917465442e+00 8.6162179841735487e+00 2.7756600048279667e+00 0 0 0
209 1 9.8698574629937574e-01 8.2694380536067484e+00 4.4453669686081660e+00 0 0 0
210 1 8.8468403130987849e-01 8.8845142251274147e+00 2.0305817164623092e+00 0 0 0
211 1 3.4876970916463512e+00 7.7250193002284595e+00 4.3993789397177192e+00 0 0 0
212 1 2.3576721234049982e+00 5.3953780678079362e+00 1.1918564798272477e-01 0 0 0
213 1 3.1531856456553498e+00 5.5911465294617910e+00 3.9972066432224618e-01 0 0 0
214 1 4.9414345086279488e-01 5.0689786509931922e+00 4.3241872425769392e+00 0 0 0
215 1 5.8066426803388826e-01 9.2243528455609241e+00 3.6982753424431545e+00 0 0 0
216 1 4.8827908909333830e+00 5.0665039173637076e+00 2.7313391318225015e+00 0 0 0
217 1 2.4005728039893195e+00 6.4271166484929232e+00 5.4951122056204416e-01 0 0 0
218 1 1.3533600752024724e+00 5.9227839279560301e+00 4.2294771569918268e+00 0 0 0
219 1 2.0026668962103629e+00 8.8225246075645671e+00 1.7107933767655834e-01 0 0 0
220 1 4.0672902083337723e+00 8.9465314657178379e+00 4.3543443197171880e+00 0 0 0
221 1 2.3513782361295905e+00 9.6140146300261904e+00 2.7438868501893650e+00 0 0 0
222 1 4.9293270404121499e+00 7.1995682070029758e+00 3.1428550990032287e+00 0 0 0
223 1 1.8001730608754665e+00 5.5086341339669351e+00 3.6138895822753616e+00 0 0 0
224 1 3.1954937163719412e+00 6.6628910632165574e+00 3.2100994806783740e+00 0 0 0
225 1 3.8537371549074244e+00 9.7603625290842562e+00 2.4130263190777161e+00 0 0 0
226 1 2.6237820287345825e+00 7.9045569421279041e+00 1.8885263436886137e+00 0 0 0
227 1 3.9552997443616853e+00 6.7228034868476927e+00 1.5820344917392520e-01 0 0 0
228 1 2.4648254795301825e+00 6.3218344637760122e+00 1.0718326834364946e+00 0 0 0
229 1 1.6111699499241869e+00 8.9333483758072134e+00 2.7861521918262131e+00 0 0 0
230 1 6.6328930699419675e-01 7.9033826514628638e+00 2.1522231363468909e+00 0 0 0
231 1 2.3810646228404089e+00 8.5531160787460934e+00 2.2219354855930131e+00 0 0 0
232 1 2.9328666641064299e-01 9.2690023636766714e+00 4.1227263138269663e+00 0 0 0
233 1 1.0000547491945582e+00 7.9201697129384474e+00 4.2923653564845985e+00 0 0 0
234 1 4.0988474032370590e+00 9.3283062052579151e+00 8.4239176979399844e-01 0 0 0
235 1 3.3848010531555865e+00 8.3513003859442190e+00 3.0558656449689836e-01 0 0 0
236 1 4.5242170731184146e+00 8.5163479012047620e+00 4.2591755484506368e+00 0 0 0
237 1 4.7551270317077297e+00 9.4200219118129560e+00 2.3082718403582798e+00 0 0 0
238 1 4.9157570651340095e+00 9.1289937073034206e+00 9.9723864858841460e-01 0 0 0
239 1 1.4487665944959813e+00 9.4201536939573263e+00 4.5231343407757274e+00 0 0 0
240 1 2.3773250041423948e+00 5.7013446212286798e+00 2.4990489904298672e+00 0 0 0
241 1 4.1552007077984516e+00 6.4582959685746104e+00 4.5803438334634263e+00 0 0 0
242 1 2.0419321870626566e+00 8.7542679620693757e+00 2.9816384999927315e+00 0 0 0
243 1 1.6652956519579960e+00 8.6240224580392351e+00 3.9454522654160167e+00 0 0 0
244 1 2.3442163282745594e+00 9.2438293105195406e+00 1.0392219019305062e+00 0 0 0
245 1 1.5611501324740937e+00 8.2502764920938194e+00 2.3970026208073842e+00 0 0 0
246 1 1.3597564312442001e-01 5.3426339921274382e+00 3.6495056858516790e+00 0 0 0
247 1 1.1455159639685955e-01 5.2686806420184116e+00 7.1555040344388710e-01 0 0 0
248 1 1.1090103448876227e+00 9.1368665262762772e+00 3.3157071253823616e+00 0 0 0
249 1 5.1324358699528660e-01 6.0849666297831417e+00 3.4146765262888172e-02 0 0 0
250 1 3.9046837733614650e+00 6.0201788861398491e+00 1.1465393524368013e+00 0 0 0
251 1 3.0635882416104843e+00 9.7275767474098025e+00 1.3823937165468902e+00 0 0 0
252 1 4.4118363617043181e+00 9.7337311644729834e+00 4.8196812974380707e+00 0 0 0
253 1 2.2377347258095326e+00 9.6075366808136629e+00 3.8689944352344585e+00 0 0 0
254 1 3.7602015229688037e+00 7.7069965366772362e+00 1.4907919343052396e+00 0 0 0
255 1 1.2553149840120761e-01 9.8078936290963998e+00 1.2682242231761218e+00 0 0 0
256 1 6.9402982513142281e-02 6.4559270983822303e+00 4.7667425101468073e+00 0 0 0
257 1 4.6413680373883661e+00 7.4726043862628764e+00 2.0619199201752991e+00 0 0 0
258 1 9.6363276288082486e-02 9.5775845738023442e+00 4.6393189600851936e-01 0 0 0
259 1 4.7300664962875034e+00 8.2276031040715072e+00 1.3253701298150093e+00 0 0 0
260 1 2.6429449080689555e+00 9.9750699149328614e+00 1.0000602765940410e+00 0 0 0
261 1 1.6592610728271588e+00 7.2008510060612352e+00 4.7028588711763071e+00 0 0 0
262 1 3.6787465231859806e+00 8.6928151867784624e+00 1.4484418562839002e-01 0 0 0
263 1 1.6878393207154418e+00 7.5154632644334178e+00 2.3910853324416492e+00 0 0 0
264 1 4.7907872939439429e+00 8.7620493158521366e+00 3.7628515268502998e+00 0 0 0
265 1 1.9847221169549609e+00 7.2246196620280942e+00 4.1826597061858788e+00 0 0 0
266 1 4.4748364130383527e+00 8.5755939355937745e+00 7.2755245525741603e-03 0 0 0
267 1 2.2797411551139044e+00 5.6095939993903006e+00 4.4634775279385397e-01 0 0 0
268 1 2.9664900307387532e+00 7.7979466262263930e+00 8.8946986984902512e-02 0 0 0
269 1 4.1096572317693647e-01 7.1009094347715882e+00 4.9848702060919585e+00 0 0 0
270 1 1.7295337383307208e+00 8.2735401244245192e+00 3.3888712028920982e+00 0 0 0
271 1 4.5605143786224138e+00 8.5651615069085558e+00 4.6694466120886835e+00 0 0 0
272 1 4.3830665687020245e+00 6.1998201749286705e+00 3.7768002617064866e-01 0 0 0
273 1 2.1459657569164250e+00 7.2464764943562807e+00 1.5304406460050681e+00 0 0 0
274 1 4.3366222150328673e+00 5.6095680573999731e+00 1.0340721351253204e-02 0 0 0
275 1 3.7965037505126107e+00 7.8385348654531573e+00 2.2554836712104658e+00 0 0 0
276 1 3.2343030875708454e+00 8.9319928032029381e+00 3.0434317901001460e-03 0 0 0
277 1 4.3908534126313653e-01 9.7073306095354877e+00 1.1055544629253236e+00 0 0 0
278 1 4.1516287411337851e+00 6.4242522355281997e+00 2.4073225224424726e+00 0 0 0
279 1 1.2570348900077097e+00 6.9853963595747004e+00 3.5566153719819220e+00 0 0 0
280 1 1.0511763957567404e+00 7.1216834835343459e+00 4.1343077617391515e+00 0 0 0
281 1 1.4515226247960342e-01 9.5740754946945579e+00 1.4868393314475377e+00 0 0 0
282 1 2.9926133495721094e+00 6.8525662584475091e+00 1.0811057272744857e+00 0 0 0
283 1 4.5337012245011055e+00 7.9164801900817450e+00 2.2825547038961922e+00 0 0 0
284 1 4.5157662660422577e+00 6.4836333722265591e+00 4.2608701178156172e-01 0 0 0
285 1 4.7668180730039342e+00 5.9113529771153592e+00 2.1094863778490045e+00 0 0 0
286 1 4.2403439545260477e+00 7.4608437192909625e+00 4.4003901232035787e+00 0 0 0
287 1 3.6067551251532297e+00 8.7333884503382215e+00 2.0596848344708256e+00 0 0 0
288 1 3.0116115524487626e+00 6.1553620063491916e+00 3.1692407108700094e+00 0 0 0
289 1 1.9692360432675277e-01 9.6950179197336634e+00 4.1661769636749186e+00 0 0 0
290 1 9.3622848435129447e-01 5.1921364922039848e+00 4.2380244723698244e+00 0 0 0
291 1 4.2302995194822079e+00 8.6440239374730847e+00 1.1031711013536766e-01 0 0 0
292 1 3.4116160559522064e+00 9.0310523887309486e+00 4.8974974010593710e+00 0 0 0
293 1 4.9264424736269010e+00 8.7186542473354631e+00 4.4219349671257362e+00 0 0 0
294 1 1.9080895846281618e+00 9.2616488455150510e+00 5.3214657145186628e-01 0 0 0
295 1 3.7874263915174766e+00 5.2753622342251996e+00 3.0130706229308020e+00 0 0 0
296 1 1.1618025699452510e+00 6.4157930698319312e+00 2.3412466525757902e-01 0 0 0
297 1 4.3468409564098529e+00 7.3559543804060459e+00 1.5252714844072570e+00 0 0 0
298 1 1.3415058615345068e+00 6.6890148104582980e+00 2.2719193726181608e+00 0 0 0
299 1 4.3883639594485810e+00 5.2330664523099859e+00 2.1478639739322776e+00 0 0 0
300 1 3.1200169833004554e+00 8.1254383307534450e+00 4.2420249731475597e+00 0 0 0
301 1 1.5063391679461762e+00 7.0423956713836624e+00 1.5440489452071715e+00 0 0 0
302 1 4.2277180609422360e-01 5.5257450256150884e+00 1.1966455128028270e+00 0 0 0
303 1 3.2667976400194676e+00 5.0679358071963936e+00 6.7971115497858783e+00 0 0 0
304 1 3.2132987227352796e+00 5.9116330118438389e+00 6.8160300593897833e+00 0 0 0
305 1 3.7054914812117312e+00 8.1953247255623918e+00 8.8226625271247059e+00 0 0 0
306 1 9.7920092799663583e-01 7.4299968394590534e+00 5.9568807882987338e+00 0 0 0
307 1 3.1299982234509653e+00 5.8801415403746731e+00 7.5388690771250380e+00 0 0 0
308 1 4.8194047598258614e+00 9.7357983932531429e+00 9.5635954055765620e+00 0 0 0
309 1 1.7359396264590041e+00 5.9373018964833122e+00 8.2329741950300406e+00 0 0 0
310 1 1.5972958698856159e+00 5.7516851675471692e+00 8.5726109652652465e+00 0 0 0
311 1 2.7392619674742509e+00 8.7758873397372135e+00 6.3385189633530192e+00 0 0 0
312 1 3.4649814867717126e+00 5.9438481721765593e+00 8.2562297714204664e+00 0 0 0
313 1 1.3636110682802327e+00 8.2112245858699193e+00 6.0516147157417679e+00 0 0 0
314 1 1.9656489472676297e+00 6.6618567270514815e+00 5.8260115542570183e+00 0 0 0
315 1 4.6225837453373630e-01 9.1765007885063525e+00 9.4487524262856475e+00 0 0 0
316 1 3.9375829528726558e+00 8.9566889307259991e+00 5.0708587118754433e+00 0 0 0
317 1 1.6317797087280916e+00 5.3215645930364559e+00 9.5361151637211989e+00 0 0 0
318 1 3.4875566621718730e+00 5.3648211226634777e+00 6.5486086050740493e+00 0 0 0
319 1 3.5865185333353091e+00 8.6169897665348785e+00 5.7470061517073798e+00 0 0 0
320 1 3.1504191985122949e+00 9.0954693961401780e+00 7.5541409279937577e+00 0 0 0
321 1 2.4465767910920908e+00 9.6161278847680087e+00 8.2613592959294841e+00 0 0 0
322 1 2.4142525821990581e+00 6.3431490195650380e+00 9.3055718295767775e+00 0 0 0
323 1 4.2272441667631471e+00 7.2927107882186357e+00 8.5902175906068727e+00 0 0 0
324 1 3.3435692607162375e+00 5.3685648578072733e+00 9.4695651668447844e+00 0 0 0
325 1 4.9817591602829090e+00 8.4262068748596146e+00 9.2589457655600018e+00 0 0 0
326 1 9.1089118780144085e-01 9.3481933788155160e+00 5.0861177524021439e+00 0 0 0
327 1 4.0697063617732869e+00 9.5548223236365342e+00 7.8987933592399546e+00 0 0 0
328 1 4.9149169423221224e+00 5.0090496079107050e+00 7.0967601552124879e+00 0 0 0
329 1 4.3570784034007595e+00 9.4167259565632442e+00 6.9131519584512109e+00 0 0 0
330 1 4.0701116407616587e+00 6.3663462811924267e+00 9.1819480011155576e+00 0 0 0
331 1 1.2099946342455197e+00 6.3798177644516425e+00 5.5971671387540027e+00 0 0 0
332 1 1.3207834918614401e+00 8.4081477152221602e+00 5.7386497388308166e+00 0 0 0
333 1 1.0087591134983856e-01 5.4214420567366499e+00 8.1766475728604231e+00 0 0 0
334 1 5.8996682548428270e-01 5.5724359143397004e+00 5.9304123073492256e+00 0 0 0
335 1 3.1886541765130383e-01 9.1710744654625067e+00 8.2485410283545697e+00 0 0 0
336 1 4.4746876854797302e+00 6.0759298578258285e+00 8.1531204786864677e+00 0 0 0
337 1 4.1759881350099990e+00 5.8325851130451012e+00 8.2579949490064735e+00 0 0 0
338 1 2.1211079517943356e+00 9.4613458073983647e+00 6.8389849443170174e+00 0 0 0
339 1 2.8199591361079173e+00 5.0532005657689645e+00 9.1419088789922682e+00 0 0 0
340 1 1.5163821547834120e+00 5.8348754448047258e+00 6.7516008330283697e+00 0 0 0
341 1 2.3982693778342892e+00 7.7134332608959788e+00 9.6728158787231973e+00 0 0 0
342 1 4.7501096570632004e+00 5.0930062612020439e+00 8.1562320227530947e+00 0 0 0
343 1 4.1141340341950459e+00 6.2507127161373912e+00 5.7286201211291452e+00 0 0 0
344 1 9.1837581755517794e-01 5.1423656498744919e+00 7.7394774405935207e+00 0 0 0
345 1 1.8513979445450928e+00 6.4452539693774904e+00 5.3834633274858179e+00 0 0 0
346 1 2.4827336252120946e+00 7.3040389396734717e+00 8.9824590920388978e+00 0 0 0
347 1 2.4792444717508015e+00 8.6618367157233127e+00 9.4896811617024621e+00 0 0 0
348 1 3.0712847332802062e+00 9.0825122404296472e+00 9.7832249010834964e+00 0 0 0
349 1 3.8911940035834878e+00 9.2976182276837616e+00 5.0695526809755496e+00 0 0 0
350 1 3.9719091560560789e+00 5.8771858345145294e+00 7.8623206856950745e+00 0 0 0
351 1 2.5779201614567637e+00 7.1041536038295146e+00 9.5096195626583047e+00 0 0 0
352 1 3.1240417636577233e+00 5.7699217953579138e+00 5.0756145804541255e+00 0 0 0
353 1 1.4706215129562752e+00 6.7357682561202754e+00 8.0570806134757973e+00 0 0 0
354 1 4.9803475872521978e-02 7.0470189894768502e+00 9.2481561374143499e+00 0 0 0
355 1 2.5631075317799610e+00 8.1482866258119628e+00 8.2533200216727884e+00 0 0 0
356 1 3.5496042545650175e+00 8.1987064742477180e+00 5.6597126813883492e+00 0 0 0
357 1 2.7910360939759000e+00 8.9436314529476828e+00 5.6138296917145283e+00 0 0 0
358 1 4.4576301865548036e+00 9.3905454265841026e+00 6.8969845990170651e+00 0 0 0
359 1 2.7125326975772772e+00 9.5370481813033336e+00 9.1687831651274028e+00 0 0 0
360 1 1.2986990070430091e+00 7.2342113718549772e+00 5.3905267666049896e+00 0 0 0
361 1 3.7713595823251458e+00 5.2405001387188674e+00 7.0858314480100901e+00 0 0 0
362 1 2.0639266269579188e+00 8.4148192817414262e+00 7.8676682281622980e+00 0 0 0
363 1 4.5765524937662070e+00 8.1177627286490797e+00 5.2381804051055481e+00 0 0 0
364 1 2.9469122285707443e+00 8.7538255885028402e+00 5.5466659672309948e+00 0 0 0
365 1 4.4074827825685423e+00 6.5631266294806858e+00 6.4692616818795265e+00 0 0 0
366 1 3.5186044841625748e+00 7.1855653203956624e+00 7.7963398898934670e+00 0 0 0
367 1 1.6298817943920763e-01 9.3423318347625113e+00 6.5711468535341080e+00 0 0 0
368 1 6.5781719547594764e-01 5.9336043642524654e+00 6.0885499911795140e+00 0 0 0