LAMMPS (7 Aug 2019)
dimension 	3
boundary	p p f
units		lj

atom_style	atomic

########## System setup  ##########
variable 	xsim equal 10.0
variable 	ysim equal 10.0
variable	Lz equal 1.25
variable 	zsim equal 5
variable 	z_buffer equal 1.0

lattice  	fcc 1.0
Lattice spacing in x,y,z = 1.5874 1.5874 1.5874
region 		myregion block 0 ${xsim} 0 ${ysim} 0 ${zsim} units lattice		# Defining region for the entire simulation box
region 		myregion block 0 10 0 ${ysim} 0 ${zsim} units lattice		
region 		myregion block 0 10 0 10 0 ${zsim} units lattice		
region 		myregion block 0 10 0 10 0 5 units lattice		
create_box	3 myregion			# Creating the simulation box
Created orthogonal box = (0 0 0) to (15.874 15.874 7.93701)
  2 by 2 by 2 MPI processor grid

create_atoms 	1 region myregion 			# Creating bottom wall with a fcc lattice density of 1.0
Created 2000 atoms
  create_atoms CPU = 0.000459777 secs

#region		flow block  INF INF INF INF -${Lz} ${Lz} units lattice		# Defining region for the fluid particles
region		wall1 block INF INF INF INF INF 0.5 units lattice	# Defining region for the bottom wall particles
group 		bot region wall1
400 atoms in group bot
region		wall2 block INF INF INF INF 4.0 INF units lattice		# Defining region for the top wall particles
group		top region wall2
400 atoms in group top

group 		walls union bot top
800 atoms in group walls
group 		fluid subtract all walls
1200 atoms in group fluid

#group 		fluid region flow

set 		group fluid type 1
  1200 settings made for type
set 		group bot type 2
  400 settings made for type
set 		group top type 3
  400 settings made for type
#create_atoms	1 random 1000 87183 fluid	# Creating fluid particles with a density of 0.5


#create_atoms 	2 region wall1			# Creating bottom wall with a fcc lattice density of 1.0
#create_atoms 	3 region wall2			# Creating top wall with a fcc lattice density of 1.0

mass 		1 1.0
mass 		2 1.0
mass 		3 1.0

write_data 	poiseuille.lmpsys
WARNING: Communication cutoff is 0.0. No ghost atoms will be generated. Atoms may get lost. (../comm_brick.cpp:166)

########## Defining groups ##########
group 		system type 1 2 3
2000 atoms in group system

#group           fluid type 1

#group           bot type 2
#group           top type 3
group		wall type 2 3
800 atoms in group wall

########## Interaction potentials ##########
pair_style 	lj/cut 2.5

pair_coeff      1 1 1.0 1.0
pair_coeff      1 2* 1.0 1.0
pair_coeff      2* 2* 0.0 0.0

## OR ##
#pair_coeff 	* * 1.0 1.0

##########  Timestep & minimization  ##########
timestep        0.001
neighbor        1.0 bin
neigh_modify    every 1 delay 0 check yes
neigh_modify    exclude group wall wall

velocity        fluid create 1.0 123456

fix             fxwall wall setforce 0.0 0.0 0.0	# To keep the walls rigid
#minimize        1.0e-6 1.0e-6 1000000 1000000
reset_timestep  0

##########  Thermostating the fluid using Nos'e-Hoover thermostat ##########
fix             fxnvt_fluid fluid nvt temp 1.0 1.0 $(100.0*dt)
fix             fxnvt_fluid fluid nvt temp 1.0 1.0 0.10000000000000000555

compute         wall_temp wall temp
compute         fluid_temp fluid temp

thermo          10
thermo_style    custom step temp c_wall_temp c_fluid_temp ke pe etotal

dump            dmpall  all dcd 50 dump.dcd
dump_modify     dmpall unwrap yes

compute         cChunk fluid chunk/atom bin/1d z 0.0 0.1 units box bound z 0 16.0
fix             fx_vel1 fluid ave/chunk 1 10000 10000 cChunk vx vy vz file ./vel_before.dat

run             10000
Neighbor list info ...
  update every 1 steps, delay 0 steps, check yes
  max neighbors/atom: 2000, page size: 100000
  master list distance cutoff = 3.5
  ghost atom cutoff = 3.5
  binsize = 1.75, bins = 10 10 5
  1 neighbor lists, perpetual/occasional/extra = 1 0 0
  (1) pair lj/cut, perpetual
      attributes: half, newton on
      pair build: half/bin/atomonly/newton
      stencil: half/bin/3d/newton
      bin: standard
Per MPI rank memory allocation (min/avg/max) = 3.473 | 3.474 | 3.475 Mbytes
Step Temp c_wall_temp c_fluid_temp KinEng PotEng TotEng 
       0    0.5997999            0            1      0.89925   -5.2449563   -4.3457063 
      10   0.58694767            0   0.97857246   0.87998129   -5.2558912   -4.3759099 
      20   0.54844009            0   0.91437175    0.8222488   -5.2142899   -4.3920411 
      30     0.485138            0   0.80883308   0.72734314   -5.1233039   -4.3959607 
      40   0.40219265            0   0.67054471   0.60298733    -4.997684   -4.3946967 
      50   0.31185161            0   0.51992608   0.46754353   -4.8567056    -4.389162 
      60   0.23313728            0   0.38869177   0.34953107   -4.7315864   -4.3820553 
      70   0.18400533            0   0.30677786   0.27586999    -4.651797    -4.375927 
      80   0.17093068            0    0.2849795   0.25626782   -4.6269336   -4.3706658 
      90   0.18638468            0   0.31074477   0.27943723   -4.6443482    -4.364911 
     100   0.21646039            0   0.36088768   0.32452825   -4.6819765   -4.3574482 
     110   0.24905384            0   0.41522821   0.37339397   -4.7219585   -4.3485645 
     120   0.27702548            0   0.46186317   0.41533046   -4.7531429   -4.3378125 
     130   0.29788299            0   0.49663728   0.44660107   -4.7724466   -4.3258455 
     140    0.3120946            0    0.5203312   0.46790783   -4.7811505   -4.3132427 
     150   0.32158737            0   0.53615776   0.48213987   -4.7825943   -4.3004544 
     160   0.32888315            0   0.54832145   0.49307806   -4.7798672   -4.2867891 
     170   0.33636136            0   0.56078929   0.50428977   -4.7767796   -4.2724899 
     180   0.34563827            0   0.57625597   0.51819818   -4.7761174   -4.2579192 
     190    0.3574183            0   0.59589589   0.53585938   -4.7789227   -4.2430633 
     200   0.37144682            0   0.61928457   0.55689165   -4.7848492   -4.2279576 
     210   0.38634074            0   0.64411605   0.57922136   -4.7915596   -4.2123383 
     220   0.39982104            0    0.6665907   0.59943169   -4.7958242   -4.1963925 
     230   0.40996542            0   0.68350364   0.61464065   -4.7947507     -4.18011 
     240   0.41648154            0   0.69436746   0.62440994   -4.7873619    -4.162952 
     250   0.42075961            0   0.70149996   0.63082384   -4.7767465   -4.1459227 
     260   0.42471787            0   0.70809927   0.63675827   -4.7660717   -4.1293134 
     270   0.42950402            0   0.71607885   0.64393391   -4.7563332   -4.1123993 
     280   0.43508641            0   0.72538593   0.65230329   -4.7479893    -4.095686 
     290   0.44058174            0   0.73454787   0.66054217   -4.7389332    -4.078391 
     300   0.44494846            0   0.74182817   0.66708898   -4.7281228   -4.0610338 
     310    0.4480526            0   0.74700346   0.67174287   -4.7154596   -4.0437167 
     320   0.45101081            0   0.75193546   0.67617796   -4.7025311   -4.0263531 
     330   0.45517634            0   0.75888031   0.68242312   -4.6915257   -4.0091026 
     340   0.46102695            0   0.76863459   0.69119465   -4.6825668   -3.9913722 
     350   0.46821612            0   0.78062054   0.70197302   -4.6759554   -3.9739824 
     360   0.47645401            0   0.79435493   0.71432367   -4.6704384   -3.9561147 
     370   0.48573592            0   0.80982994   0.72823957   -4.6664827   -3.9382431 
     380   0.49588638            0   0.82675302   0.74345765   -4.6638587   -3.9204011 
     390   0.50541687            0   0.84264247   0.75774624   -4.6599467   -3.9022005 
     400   0.51183647            0   0.85334537   0.76737083   -4.6517697   -3.8843989 
     410   0.51430809            0   0.85746612   0.77107641   -4.6381418   -3.8670654 
     420   0.51457386            0   0.85790921   0.77147486   -4.6211709   -3.8496961 
     430   0.51522636            0   0.85899708   0.77245312   -4.6053598   -3.8329067 
     440   0.51799365            0   0.86361077   0.77660198     -4.59232    -3.815718 
     450   0.52295536            0   0.87188303   0.78404082   -4.5822647   -3.7982239 
     460    0.5288103            0   0.88164453   0.79281884   -4.5742701   -3.7814513 
     470   0.53426991            0   0.89074691   0.80100416   -4.5655983   -3.7645941 
     480   0.53967671            0   0.89976125   0.80911031    -4.556999   -3.7478887 
     490   0.54584469            0   0.91004464   0.81835764    -4.549555   -3.7311974 
     500   0.55260956            0   0.92132319   0.82849988   -4.5430372   -3.7145374 
     510   0.56084916            0   0.93506044    0.8408531   -4.5389715   -3.6981184 
     520    0.5714846            0   0.95279209   0.85679828    -4.538943   -3.6821447 
     530   0.58283685            0   0.97171882   0.87381815   -4.5404422    -3.666624 
     540   0.59253498            0   0.98788777   0.88835807   -4.5401315   -3.6517735 
     550   0.59977914            0   0.99996539   0.89921887   -4.5361977   -3.6369788 
     560   0.60511639            0    1.0088638   0.90722074   -4.5307488   -3.6235281 
     570   0.60969941            0    1.0165047   0.91409184   -4.5253025   -3.6112106 
     580   0.61448571            0    1.0244845    0.9212677   -4.5206342   -3.5993665 
     590   0.61953986            0    1.0329109   0.92884513    -4.516889   -3.5880439 
     600    0.6231081            0      1.03886   0.93419482   -4.5120979   -3.5779031 
     610    0.6230123            0    1.0387002   0.93405119   -4.5031066   -3.5690554 
     620   0.61949229            0    1.0328316   0.92877382   -4.4896287   -3.5608549 
     630   0.61505177            0    1.0254283   0.92211637    -4.475993   -3.5538767 
     640   0.61196065            0    1.0202747   0.91748201   -4.4646708   -3.5471888 
     650   0.61131732            0    1.0192021    0.9165175   -4.4571382   -3.5406207 
     660   0.61468292            0    1.0248133   0.92156337   -4.4562581   -3.5346947 
     670   0.62247539            0    1.0378051   0.93324622   -4.4626956   -3.5294494 
     680   0.63217329            0    1.0539736    0.9477858   -4.4723504   -3.5245646 
     690   0.64114034            0    1.0689237   0.96122965   -4.4814907    -3.520261 
     700   0.64752976            0    1.0795763   0.97080899   -4.4883985   -3.5175895 
     710   0.65043544            0    1.0844207   0.97516533   -4.4917463    -3.516581 
     720    0.6508892            0    1.0851772   0.97584564   -4.4930226    -3.517177 
     730   0.64998898            0    1.0836764   0.97449599   -4.4938605   -3.5193645 
     740    0.6463085            0    1.0775402   0.96897802   -4.4923663   -3.5233883 
     750   0.63773049            0    1.0632387   0.95611743   -4.4851436   -3.5290262 
     760   0.62612309            0    1.0438866   0.93871504    -4.474187   -3.5354719 
     770   0.61597818            0    1.0269728   0.92350529   -4.4661837   -3.5426784 
     780   0.61001778            0    1.0170355   0.91456916     -4.46491   -3.5503408 
     790   0.60738336            0    1.0126433   0.91061951   -4.4680205   -3.5574009 
     800   0.60476686            0     1.008281   0.90669672   -4.4713181   -3.5646214 
     810   0.60068827            0    1.0014811   0.90058188    -4.472401   -3.5718192 
     820   0.59660887            0   0.99467985   0.89446585   -4.4736502   -3.5791843 
     830   0.59481791            0   0.99169392   0.89178075   -4.4785983   -3.5868176 
     840   0.59492288            0   0.99186893   0.89193813   -4.4858189   -3.5938807 
     850   0.59478213            0   0.99163426   0.89172711   -4.4917243   -3.5999972 
     860   0.59419474            0   0.99065495   0.89084646   -4.4970349   -3.6061885 
     870   0.59457236            0   0.99128453   0.89141262   -4.5038675   -3.6124549 
     880   0.59729991            0   0.99583195   0.89550188   -4.5140646   -3.6185627 
     890   0.60144342            0    1.0027401   0.90171404   -4.5262284   -3.6245144 
     900   0.60380038            0    1.0066697   0.90524772   -4.5357585   -3.6305108 
     910   0.60281963            0    1.0050346   0.90377733   -4.5396977   -3.6359204 
     920   0.60018895            0    1.0006486   0.89983329   -4.5415201   -3.6416868 
     930   0.59884821            0   0.99841332   0.89782318   -4.5455226   -3.6476994 
     940   0.59990416            0    1.0001738   0.89940631   -4.5528777   -3.6534713 
     950   0.60150761            0    1.0028471   0.90181029   -4.5610923    -3.659282 
     960   0.60095216            0    1.0019211   0.90097753   -4.5660426   -3.6650651 
     970   0.59698286            0   0.99530337   0.89502655   -4.5657181   -3.6706916 
     980   0.58990808            0   0.98350813   0.88441969   -4.5609324   -3.6765127 
     990   0.58109264            0   0.96881084   0.87120315   -4.5528785   -3.6816753 
    1000   0.57209157            0   0.95380405   0.85770829   -4.5440685   -3.6863602 
    1010    0.5635956            0   0.93963937   0.84497071   -4.5347034   -3.6897327 
    1020   0.55681589            0   0.92833608   0.83480622   -4.5270403   -3.6922341 
    1030   0.55416117            0   0.92391007   0.83082613   -4.5244823   -3.6936562 
    1040   0.55619392            0   0.92729913   0.83387374    -4.527749   -3.6938752 
    1050   0.56072919            0   0.93486043   0.84067324   -4.5332682    -3.692595 
    1060   0.56571095            0   0.94316613   0.84814214   -4.5384869   -3.6903448 
    1070   0.57148827            0   0.95279821   0.85680379   -4.5437284   -3.6869247 
    1080   0.57869747            0   0.96481755   0.86761218   -4.5500742   -3.6824621 
    1090    0.5853504            0   0.97590946   0.87758658   -4.5551192   -3.6775326 
    1100   0.58850593            0   0.98117044   0.88231752    -4.555013   -3.6726955 
    1110   0.58830187            0   0.98083023   0.88201158   -4.5492477   -3.6672361 
    1120   0.58803182            0   0.98037998    0.8816067   -4.5428686   -3.6612619 
    1130   0.58962215            0   0.98303143   0.88399102   -4.5391059   -3.6551149 
    1140   0.59148108            0   0.98613067   0.88677801   -4.5357718   -3.6489938 
    1150   0.59216369            0   0.98726873   0.88780141   -4.5304865   -3.6426851 
    1160   0.59240961            0   0.98767874   0.88817011    -4.524051   -3.6358809 
    1170   0.59376134            0   0.98993238   0.89019669   -4.5197304   -3.6295337 
    1180   0.59806189            0   0.99710236    0.8966443   -4.5193297   -3.6226854 
    1190   0.60536523            0    1.0092787   0.90759383   -4.5233609   -3.6157671 
    1200   0.61248808            0     1.021154   0.91827276   -4.5270906   -3.6088179 
    1210   0.61784226            0    1.0300806   0.92630001   -4.5289585   -3.6026585 
    1220   0.62268708            0     1.038158   0.93356361   -4.5307316    -3.597168 
    1230   0.62705402            0    1.0454387   0.94011074   -4.5325724   -3.5924617 
    1240   0.62944517            0    1.0494253   0.94369567   -4.5320391   -3.5883435 
    1250   0.62827528            0    1.0474748   0.94194172   -4.5274033   -3.5854616 
    1260   0.62312635            0    1.0388904   0.93422219    -4.517403   -3.5831809 
    1270   0.61554628            0    1.0262527   0.92285776   -4.5046465   -3.5817887 
    1280   0.60947694            0    1.0161338    0.9137583   -4.4945184   -3.5807601 
    1290   0.60755104            0    1.0129229    0.9108709    -4.490817   -3.5799461 
    1300   0.60899898            0    1.0153369   0.91304172   -4.4926859   -3.5796442 
    1310   0.61218179            0    1.0206434   0.91781355   -4.4972907   -3.5794772 
    1320     0.615606            0    1.0263523   0.92294729   -4.5026289   -3.5796817 
    1330   0.61721205            0    1.0290299   0.92535517   -4.5056126   -3.5802575 
    1340   0.61512841            0     1.025556   0.92223127   -4.5038841   -3.5816528 
    1350   0.61054704            0    1.0179179   0.91536265   -4.4986171   -3.5832544 
    1360    0.6066079            0    1.0113505    0.9094569   -4.4942451   -3.5847882 
    1370   0.60526169            0     1.009106   0.90743859   -4.4946721   -3.5872335 
    1380   0.60689642            0    1.0118315   0.90988946    -4.499006   -3.5891165 
    1390    0.6098392            0    1.0167377   0.91430142   -4.5059849   -3.5916835 
    1400   0.61057462            0    1.0179639     0.915404   -4.5097763   -3.5943723 
    1410   0.60756229            0    1.0129416   0.91088776   -4.5083174   -3.5974297 
    1420   0.60184325            0    1.0034067    0.9023135   -4.5033617   -3.6010482 
    1430      0.59527            0   0.99244765   0.89245855   -4.4970625   -3.6046039 
    1440   0.59015625            0   0.98392189   0.88479176   -4.4925705   -3.6077788 
    1450   0.58845747            0   0.98108964   0.88224486   -4.4926658    -3.610421 
    1460   0.59038268            0    0.9842994   0.88513124   -4.4979858   -3.6128545 
    1470   0.59440325            0   0.99100259   0.89115908      -4.5065   -3.6153409 
    1480   0.59822296            0   0.99737089   0.89688578   -4.5145553   -3.6176695 
    1490   0.60002531            0    1.0003758   0.89958795   -4.5195966   -3.6200086 
    1500   0.59952541            0   0.99954236   0.89883846   -4.5205709   -3.6217324 
    1510   0.59870004            0   0.99816629   0.89760104   -4.5217833   -3.6241822 
    1520   0.59947367            0    0.9994561   0.89876089   -4.5254947   -3.6267338 
    1530    0.6009989            0     1.001999    0.9010476   -4.5299591   -3.6289115 
    1540   0.60174922            0      1.00325   0.90217252   -4.5331969   -3.6310244 
    1550   0.60125871            0    1.0024322   0.90143712    -4.534879   -3.6334419 
    1560   0.60006255            0    1.0004379   0.89964378   -4.5355292   -3.6358854 
    1570   0.59899552            0   0.99865892   0.89804403   -4.5365369   -3.6384928 
    1580   0.59802696            0   0.99704412   0.89659192   -4.5369607   -3.6403688 
    1590   0.59562524            0   0.99303991   0.89299114   -4.5356746   -3.6426835 
    1600   0.59067696            0   0.98479002   0.88557243   -4.5306489   -3.6450765 
    1610   0.58415521            0   0.97391681    0.8757947   -4.5228202   -3.6470255 
    1620   0.57808028            0   0.96378856   0.86668686   -4.5150617   -3.6483748 
    1630   0.57429088            0   0.95747078    0.8610056   -4.5102011   -3.6491955 
    1640   0.57330233            0   0.95582265   0.85952352   -4.5088237   -3.6493002 
    1650   0.57360953            0   0.95633482   0.85998409    -4.508582   -3.6485979 
    1660   0.57366527            0   0.95642775   0.86006766   -4.5072852   -3.6472175 
    1670   0.57399215            0   0.95697274   0.86055774   -4.5052796   -3.6447218 
    1680   0.57594308            0   0.96022536   0.86348266   -4.5049719   -3.6414892 
    1690   0.58025064            0   0.96740703   0.86994077   -4.5077608     -3.63782 
    1700   0.58742138            0   0.97936225   0.88069151   -4.5143298   -3.6336383 
    1710   0.59677744            0   0.99496089   0.89471858   -4.5237645   -3.6290459 
    1720    0.6050164            0    1.0086971   0.90707084   -4.5311731   -3.6241022 
    1730   0.60890445            0    1.0151793       0.9129   -4.5322594   -3.6193594 
    1740    0.6093063            0    1.0158493   0.91350248   -4.5279829   -3.6144805 
    1750   0.60976221            0    1.0166094   0.91418599   -4.5243225   -3.6101365 
    1760   0.61132537            0    1.0192155   0.91652956   -4.5231302   -3.6066007 
    1770   0.61248913            0    1.0211558   0.91827433    -4.521379   -3.6031047 
    1780   0.61270214            0    1.0215109   0.91859369   -4.5183101   -3.5997164 
    1790   0.61290245            0    1.0218449     0.918894   -4.5160906   -3.5971966 
    1800   0.61327018            0     1.022458   0.91944532   -4.5147819   -3.5953365 
    1810   0.61305921            0    1.0221062   0.91912902   -4.5123009   -3.5931719 
    1820   0.61226897            0    1.0207887   0.91794426   -4.5100382   -3.5920939 
    1830   0.61101841            0    1.0187037   0.91606935   -4.5073247   -3.5912554 
    1840   0.60914002            0    1.0155721   0.91325317   -4.5038709   -3.5906177 
    1850   0.60582512            0    1.0100454   0.90828331   -4.4983331   -3.5900498 
    1860   0.60023601            0    1.0007271   0.89990384   -4.4893222   -3.5894183 
    1870   0.59466899            0   0.99144564   0.89155749   -4.4807155    -3.589158 
    1880   0.59335772            0   0.98925946   0.88959157   -4.4785219   -3.5889304 
    1890    0.5976651            0   0.99644081    0.8960494   -4.4844016   -3.5883522 
    1900   0.60647968            0    1.0111367   0.90926466   -4.4967751   -3.5875104 
    1910    0.6166803            0    1.0281434   0.92455794   -4.5114885   -3.5869306 
    1920   0.62398612            0    1.0403238   0.93551119   -4.5227115   -3.5872003 
    1930   0.62624768            0    1.0440943   0.93890183   -4.5269171   -3.5880153 
    1940   0.62464827            0    1.0414278   0.93650392   -4.5259953   -3.5894914 
    1950   0.62016553            0     1.033954   0.92978317   -4.5219234   -3.5921402 
    1960    0.6141446            0    1.0239158   0.92075629   -4.5157108   -3.5949545 
    1970   0.60957697            0    1.0163006   0.91390828   -4.5128237   -3.5989155 
    1980   0.60660943            0     1.011353   0.90945919   -4.5118798   -3.6024206 
    1990   0.60318334            0     1.005641   0.90432263   -4.5107501   -3.6064275 
    2000   0.59861224            0    0.9980199    0.8974694   -4.5077966   -3.6103272 
    2010   0.59435443            0   0.99092118   0.89108587   -4.5050457   -3.6139598 
    2020   0.59164356            0   0.98640157   0.88702161   -4.5051324   -3.6181108 
    2030    0.5898113            0   0.98334677   0.88427458   -4.5054179   -3.6211433 
    2040   0.58792192            0   0.98019676   0.88144194   -4.5060065   -3.6245646 
    2050    0.5859377            0   0.97688863    0.8784671   -4.5057335   -3.6272664 
    2060   0.58361562            0    0.9730172   0.87498572    -4.504172   -3.6291863 
    2070   0.58130739            0   0.96916887    0.8715251   -4.5024388   -3.6309137 
    2080   0.58064825            0   0.96806994   0.87053689   -4.5027822   -3.6322453 
    2090   0.58374295            0    0.9732295   0.87517662   -4.5079695   -3.6327929 
    2100   0.59109025            0   0.98547908   0.88619206   -4.5191997   -3.6330076 
    2110    0.5999949            0    1.0003251   0.89954235   -4.5329306   -3.6333883 
    2120   0.60712137            0    1.0122065   0.91022671   -4.5439006   -3.6336739 
    2130   0.60998585            0    1.0169822   0.91452129   -4.5487654   -3.6342441 
    2140    0.6082608            0    1.0141062   0.91193501   -4.5465827   -3.6346477 
    2150   0.60425469            0    1.0074271   0.90592885   -4.5415008   -3.6355719 
    2160    0.6004323            0    1.0010544   0.90019813   -4.5365613   -3.6363632 
    2170   0.59789732            0   0.99682797   0.89639755   -4.5338292   -3.6374316 
    2180   0.59628948            0   0.99414735   0.89398701   -4.5319383   -3.6379513 
    2190   0.59401889            0   0.99036177   0.89058282   -4.5298625   -3.6392797 
    2200   0.59054966            0   0.98457778   0.88538157   -4.5254778   -3.6400962 
    2210   0.58756041            0   0.97959404   0.88089994   -4.5211982   -3.6402983 
    2220   0.58665516            0   0.97808479   0.87954275   -4.5197077    -3.640165 
    2230   0.58776133            0   0.97992903   0.88120118   -4.5210149   -3.6398137 
    2240   0.59010153            0   0.98383066   0.88470972   -4.5239064   -3.6391967 
    2250   0.59225295            0   0.98741756   0.88793524   -4.5263101   -3.6383748 
    2260   0.59293973            0   0.98856257   0.88896489   -4.5259122   -3.6369473 
    2270   0.59264271            0   0.98806737   0.88851958   -4.5239879   -3.6354683 
    2280   0.59330701            0   0.98917491   0.88951553   -4.5232643   -3.6337488 
    2290   0.59565026            0   0.99308162   0.89302865   -4.5251707    -3.632142 
    2300   0.59707443            0   0.99545604   0.89516384   -4.5251895   -3.6300257 
    2310   0.59596974            0   0.99361427   0.89350764   -4.5213331   -3.6278255 
    2320   0.59409008            0   0.99048047   0.89068956   -4.5164924   -3.6258029 
    2330   0.59265749            0   0.98809201   0.88854174   -4.5121136   -3.6235718 
    2340   0.59194537            0   0.98690475   0.88747409   -4.5083987   -3.6209246 
    2350   0.59264254            0   0.98806709   0.88851933   -4.5066624    -3.618143 
    2360   0.59466036            0   0.99143125   0.89154455   -4.5063867   -3.6148421 
    2370   0.59771477            0   0.99652363   0.89612387   -4.5076633   -3.6115395 
    2380   0.60273035            0    1.0048857   0.90364347    -4.511968   -3.6083245 
    2390   0.61006905            0     1.017121   0.91464602   -4.5201174   -3.6054714 
    2400   0.61733564            0     1.029236   0.92554045   -4.5280138   -3.6024733 
    2410   0.62069141            0    1.0348308   0.93057159   -4.5308101   -3.6002385 
    2420   0.61882315            0     1.031716   0.92777061   -4.5260295   -3.5982589 
    2430    0.6138209            0    1.0233761   0.92027099   -4.5177364   -3.5974654 
    2440    0.6084426            0    1.0144093   0.91220757   -4.5085544   -3.5963469 
    2450   0.60477281            0    1.0082909   0.90670563   -4.5024886    -3.595783 
    2460   0.60452396            0    1.0078761   0.90633255   -4.5017908   -3.5954582 
    2470   0.60866785            0    1.0147848   0.91254527   -4.5081191   -3.5955739 
    2480   0.61520289            0    1.0256802   0.92234293   -4.5179358   -3.5955929 
    2490   0.61906549            0      1.03212   0.92813394   -4.5244019    -3.596268 
    2500   0.61693346            0    1.0285655   0.92493749   -4.5219968   -3.5970593 
    2510   0.61042926            0    1.0177215   0.91518607   -4.5138253   -3.5986393 
    2520   0.60478816            0    1.0083165   0.90672864    -4.507326   -3.6005974 
    2530    0.6026273            0    1.0047139   0.90348898   -4.5061591   -3.6026701 
    2540   0.60162293            0    1.0030394   0.90198318   -4.5068985   -3.6049153 
    2550   0.60105978            0    1.0021005   0.90113888   -4.5085747   -3.6074358 
    2560   0.60361679            0    1.0063636   0.90497247   -4.5145082   -3.6095357 
    2570   0.60916085            0    1.0156068    0.9132844   -4.5250636   -3.6117792 
    2580   0.61411756            0    1.0238707   0.92071574   -4.5351166   -3.6144009 
    2590    0.6165404            0    1.0279101    0.9243482   -4.5420675   -3.6177193 
    2600   0.61678632            0    1.0283201   0.92471689   -4.5460452   -3.6213283 
    2610   0.61352623            0    1.0228848    0.9198292   -4.5449836   -3.6251544 
    2620   0.60454242            0    1.0079068   0.90636022   -4.5356618   -3.6293016 
    2630   0.59125103            0   0.98574713   0.88643311   -4.5204124   -3.6339793 
    2640   0.57791284            0   0.96350939   0.86643582   -4.5049053   -3.6384695 
    2650   0.56886399            0   0.94842295   0.85286934   -4.4947208   -3.6418514 
    2660   0.56719807            0   0.94564548    0.8503717   -4.4950506   -3.6446789 
    2670   0.57192515            0   0.95352658   0.85745878   -4.5041923   -3.6467335 
    2680   0.57907318            0   0.96544393   0.86817546    -4.516149   -3.6479735 
    2690   0.58460617            0   0.97466867    0.8764708   -4.5247132   -3.6482424 
    2700   0.58723578            0   0.97905282   0.88041325   -4.5281761   -3.6477629 
    2710   0.58894762            0   0.98190684   0.88297972   -4.5304584   -3.6474787 
    2720   0.59196665            0   0.98694023     0.887506   -4.5338559   -3.6463499 
    2730   0.59593618            0   0.99355832   0.89345732   -4.5388364   -3.6453791 
    2740   0.59867735            0   0.99812845   0.89756701   -4.5415864   -3.6440193 
    2750   0.59902817            0   0.99871335   0.89809298   -4.5405262   -3.6424332 
    2760   0.59756979            0    0.9962819    0.8959065   -4.5370748   -3.6411683 
    2770   0.59569342            0   0.99315358   0.89309336   -4.5329062   -3.6398129 
    2780    0.5952384            0   0.99239497   0.89241118    -4.530693   -3.6382818 
    2790     0.597344            0   0.99590546   0.89556799   -4.5322112   -3.6366432 
    2800   0.60075638            0    1.0015947     0.900684   -4.5354754   -3.6347914 
    2810   0.60397858            0    1.0069668   0.90551489   -4.5383445   -3.6328296 
    2820   0.60678596            0    1.0116473   0.90972386   -4.5405103   -3.6307865 
    2830    0.6087375            0     1.014901    0.9126497   -4.5420914   -3.6294417 
    2840   0.60903661            0    1.0153997   0.91309814   -4.5410656   -3.6279674 
    2850   0.60781804            0     1.013368   0.91127119   -4.5382282    -3.626957 
    2860    0.6061966            0    1.0106647   0.90884026   -4.5352206   -3.6263803 
    2870   0.60465191            0    1.0080894   0.90652438   -4.5322177   -3.6256933 
    2880    0.6022202            0    1.0040352   0.90287863     -4.52805   -3.6251713 
    2890   0.59874263            0   0.99823729   0.89766488   -4.5227706   -3.6251057 
    2900   0.59620079            0   0.99399948   0.89385403   -4.5186288   -3.6247747 
    2910   0.59513593            0   0.99222412   0.89225754   -4.5165231   -3.6242656 
    2920   0.59455565            0   0.99125667   0.89138756   -4.5149831   -3.6235955 
    2930   0.59391471            0   0.99018807   0.89042662   -4.5134746   -3.6230479 
    2940   0.59313671            0   0.98889099   0.88926022   -4.5111767   -3.6219165 
    2950    0.5934042            0   0.98933694   0.88966124   -4.5104528   -3.6207916 
    2960   0.59549106            0   0.99281621   0.89278998   -4.5125931   -3.6198031 
    2970   0.59796724            0   0.99694455   0.89650239   -4.5149667   -3.6184643 
    2980   0.59893062            0   0.99855071   0.89794673   -4.5151143   -3.6171676 
    2990   0.59845215            0     0.997753   0.89722939   -4.5125494     -3.61532 
    3000   0.59780957            0   0.99668168     0.896266   -4.5097836   -3.6135176 
    3010   0.59803333            0   0.99705474   0.89660147   -4.5082621   -3.6116606 
    3020   0.59974569            0   0.99990962   0.89916872   -4.5085543   -3.6093856 
    3030    0.6036738            0    1.0064587   0.90505795   -4.5129478   -3.6078898 
    3040   0.61031508            0    1.0175311   0.91501488   -4.5209012   -3.6058863 
    3050   0.61790671            0    1.0301881   0.92639663    -4.530686   -3.6042893 
    3060   0.62336148            0    1.0392824    0.9345747   -4.5381046   -3.6035299 
    3070   0.62484913            0    1.0417627   0.93680507    -4.540476    -3.603671 
    3080   0.62159375            0    1.0363352   0.93192443   -4.5360983   -3.6041738 
    3090   0.61406345            0    1.0237805   0.92063463   -4.5257563   -3.6051217 
    3100   0.60566506            0    1.0097785   0.90804334   -4.5148746   -3.6068312 
    3110   0.59860683            0   0.99801088   0.89746129    -4.506175   -3.6087137 
    3120   0.59305174            0   0.98874931   0.88913282    -4.499194   -3.6100611 
    3130   0.59152653            0   0.98620645   0.88684615   -4.4982826   -3.6114365 
    3140   0.59601382            0   0.99368775   0.89357371   -4.5065314   -3.6129577 
    3150   0.60372481            0    1.0065437   0.90513442   -4.5196694   -3.6145349 
    3160   0.61045498            0    1.0177644   0.91522464   -4.5314663   -3.6162416 
    3170   0.61496522            0     1.025284    0.9219866   -4.5403025   -3.6183159 
    3180   0.61795121            0    1.0302623   0.92646335   -4.5469113   -3.6204479 
    3190   0.61866115            0    1.0314459   0.92752774   -4.5510875   -3.6235598 
    3200   0.61477228            0    1.0249623   0.92169735   -4.5484487   -3.6267513 
    3210   0.60642128            0    1.0110393   0.90917711   -4.5400978   -3.6309207 
    3220   0.59747081            0   0.99611688   0.89575811   -4.5307762   -3.6350181 
    3230   0.59130088            0   0.98583024   0.88650784   -4.5254164   -3.6389085 
    3240   0.58754465            0   0.97956776   0.88087631   -4.5228269   -3.6419506 
    3250   0.58401419            0    0.9736817   0.87558327   -4.5207182   -3.6451349 
    3260   0.58023129            0   0.96737478   0.86991177   -4.5178755   -3.6479637 
    3270   0.57793848            0   0.96355215   0.86647427   -4.5165792    -3.650105 
    3280   0.57812585            0   0.96386454   0.86675518   -4.5185892    -3.651834 
    3290   0.58044927            0    0.9677382   0.87023857   -4.5231244   -3.6528859 
    3300   0.58449151            0    0.9744775   0.87629889   -4.5294027   -3.6531038 
    3310   0.59000679            0   0.98367271   0.88456769   -4.5375945   -3.6530268 
    3320   0.59594556            0   0.99357396   0.89347139   -4.5461678   -3.6526964 
    3330   0.59951474            0   0.99952458   0.89882248   -4.5511028   -3.6522803 
    3340   0.59834712            0   0.99757789   0.89707192   -4.5484276   -3.6513557 
    3350   0.59219247            0   0.98731672   0.88784456   -4.5386257   -3.6507811 
    3360   0.58280178            0   0.97166035   0.87376557   -4.5234395    -3.649674 
    3370   0.57332141            0   0.95585447   0.85955213   -4.5076612    -3.648109 
    3380   0.56766162            0   0.94641833   0.85106668    -4.496796   -3.6457294 
    3390   0.56824481            0   0.94739063   0.85194103   -4.4941884   -3.6422474 
    3400   0.57402233            0   0.95702305   0.86060298   -4.4991532   -3.6385502 
    3410   0.58257538            0   0.97128288   0.87342613   -4.5072606   -3.6338345 
    3420   0.59115743            0   0.98559108   0.88629278   -4.5148118    -3.628519 
    3430   0.59850237            0   0.99783674   0.89730468   -4.5204686   -3.6231639 
    3440   0.60441822            0    1.0076998   0.90617401   -4.5240013   -3.6178273 
    3450   0.60752965            0    1.0128872   0.91083883   -4.5234836   -3.6126447 
    3460   0.60830972            0    1.0141878   0.91200835   -4.5198716   -3.6078632 
    3470   0.60912833            0    1.0155526   0.91323565    -4.516745   -3.6035093 
    3480   0.61087993            0    1.0184729   0.91586174    -4.515492   -3.5996302 
    3490   0.61425677            0    1.0241028   0.92092447   -4.5174137   -3.5964893 
    3500   0.62006202            0    1.0337815   0.92962798   -4.5235505   -3.5939225 
    3510   0.62760668            0    1.0463601   0.94093931   -4.5327712   -3.5918319 
    3520   0.63387297            0    1.0568074   0.95033405   -4.5407111    -3.590377 
    3530   0.63403972            0    1.0570854   0.95058404    -4.540797   -3.5902129 
    3540   0.62578323            0      1.04332   0.93820551   -4.5293999   -3.5911943 
    3550    0.6126972            0    1.0215027   0.91858627   -4.5114974   -3.5929111 
    3560   0.60219579            0    1.0039945   0.90284203   -4.4975539   -3.5947119 
    3570   0.59901658            0   0.99869403   0.89807561   -4.4948162   -3.5967406 
    3580   0.60188169            0    1.0034708   0.90237112   -4.5013068   -3.5989357 
    3590   0.60671181            0    1.0115237   0.90961268   -4.5111038   -3.6014911 
    3600   0.61041508            0    1.0176979   0.91516481   -4.5193663   -3.6042015 
    3610   0.61069998            0    1.0181729   0.91559195   -4.5228416   -3.6072496 
    3620   0.60706214            0    1.0121078   0.91013791    -4.521085   -3.6109471 
    3630   0.60177837            0    1.0032985   0.90221622   -4.5164165   -3.6142003 
    3640   0.59703207            0    0.9953854   0.89510032   -4.5128777   -3.6177774 
    3650   0.59162828            0    0.9863761   0.88699871   -4.5080686   -3.6210699 
    3660   0.58583972            0   0.97672527    0.8783202   -4.5023512    -3.624031 
    3670   0.58453765            0   0.97455444   0.87636808   -4.5031864   -3.6268183 
    3680    0.5895266            0   0.98287213   0.88384776   -4.5128617    -3.629014 
    3690   0.59616747            0   0.99394393   0.89380408   -4.5248554   -3.6310513 
    3700   0.59940602            0   0.99934332   0.89865948   -4.5316821   -3.6330226 
    3710   0.59769872            0   0.99649686    0.8960998    -4.531179   -3.6350792 
    3720   0.59306657            0   0.98877404   0.88915506   -4.5257972   -3.6366421 
    3730   0.58923138            0   0.98237993   0.88340515   -4.5218013   -3.6383962 
    3740    0.5892757            0   0.98245382   0.88347159   -4.5233641   -3.6398925 
    3750    0.5921459            0   0.98723908   0.88777475   -4.5283844   -3.6406096 
    3760    0.5936053            0   0.98967222   0.88996274   -4.5317598   -3.6417971 
    3770   0.59187016            0   0.98677936   0.88736134   -4.5300987   -3.6427373 
    3780   0.58817334            0   0.98061593   0.88181888   -4.5256241   -3.6438052 
    3790   0.58418898            0   0.97397312   0.87584533    -4.520033   -3.6441876 
    3800    0.5813039            0   0.96916305   0.87151987   -4.5155043   -3.6439844 
    3810   0.58006918            0    0.9671045   0.86966872    -4.513104   -3.6434352 
    3820   0.58008765            0   0.96713529   0.86969641    -4.512028   -3.6423316 
    3830   0.58124808            0   0.96906998   0.87143618   -4.5116649   -3.6402287 
    3840   0.58303155            0   0.97204343   0.87411006    -4.511338    -3.637228 
    3850   0.58441061            0   0.97434262    0.8761776   -4.5099003   -3.6337227 
    3860   0.58544874            0   0.97607342   0.87773403   -4.5069027   -3.6291686 
    3870   0.58819048            0    0.9806445   0.88184457   -4.5063418   -3.6244972 
    3880   0.59459247            0   0.99131805   0.89144275   -4.5104325   -3.6189898 
    3890   0.60402228            0    1.0070396    0.9055804   -4.5187862   -3.6132058 
    3900   0.61407617            0    1.0238017    0.9206537   -4.5282112   -3.6075575 
    3910   0.62296546            0    1.0386221   0.93398097   -4.5360385   -3.6020575 
    3920   0.62856023            0    1.0479499   0.94236892   -4.5398343   -3.5974653 
    3930   0.62817846            0    1.0473134   0.94179655    -4.536017   -3.5942204 
    3940   0.62204025            0    1.0370796   0.93259384   -4.5250623   -3.5924685 
    3950   0.61386402            0     1.023448   0.92033564   -4.5116832   -3.5913476 
    3960   0.60721995            0    1.0123709   0.91037451   -4.5009004   -3.5905259 
    3970   0.60372923            0    1.0065511   0.90514105   -4.4953673   -3.5902263 
    3980   0.60422093            0    1.0073708   0.90587823   -4.4955434   -3.5896652 
    3990   0.60806603            0    1.0137815     0.911643   -4.5008629   -3.5892199 
    4000   0.61302501            0    1.0220492   0.91907774   -4.5083548    -3.589277 
    4010   0.61657229            0    1.0279633   0.92439601   -4.5138872   -3.5894912 
    4020   0.61793947            0    1.0302427   0.92644575   -4.5171435   -3.5906977 
    4030     0.617429            0    1.0293916   0.92568043   -4.5177602   -3.5920798 
    4040   0.61474289            0    1.0249133   0.92165327   -4.5154643    -3.593811 
    4050   0.60889574            0    1.0151648   0.91288694   -4.5090717   -3.5961847 
    4060   0.60055046            0    1.0012513   0.90037527   -4.4988548   -3.5984795 
    4070   0.59282632            0   0.98837348   0.88879485    -4.489817   -3.6010222 
    4080   0.58830935            0   0.98084269   0.88202279   -4.4855643   -3.6035415 
    4090    0.5872803            0   0.97912704   0.88047999   -4.4860898   -3.6056098 
    4100   0.58929523            0   0.98248637   0.88350087   -4.4906621   -3.6071612 
    4110   0.59374984            0   0.98991321   0.89017945   -4.4990128   -3.6088333 
    4120    0.6000029            0    1.0003384   0.89955435   -4.5099096   -3.6103552 
    4130   0.60711691            0    1.0121991   0.91022002   -4.5220481   -3.6118281 
    4140    0.6128896            0    1.0218234   0.91887474   -4.5323354   -3.6134606 
    4150   0.61473275            0    1.0248964   0.92163808   -4.5371199   -3.6154818 
    4160   0.61201998            0    1.0203736   0.91757095   -4.5362104   -3.6186394 
    4170   0.60707014            0    1.0121211   0.91014991   -4.5327198   -3.6225699 
    4180    0.6025679            0    1.0046149   0.90339992   -4.5307161   -3.6273162 
    4190   0.59911504            0   0.99885819   0.89822322   -4.5310831   -3.6328599 
    4200   0.59552576            0   0.99287406     0.892842    -4.532529    -3.639687 
    4210   0.59021821            0   0.98402519   0.88488465   -4.5324593   -3.6475747 
    4220   0.58310837            0    0.9721715   0.87422522   -4.5300937   -3.6558685 
    4230   0.57595485            0     0.960245   0.86350031   -4.5275975   -3.6640972 
    4240   0.56981958            0   0.95001613     0.854302   -4.5261126   -3.6718106 
    4250    0.5648206            0   0.94168172   0.84680729   -4.5249628   -3.6781555 
    4260   0.56173913            0   0.93654421   0.84218738   -4.5248048   -3.6826174 
    4270   0.56153496            0   0.93620382   0.84188129   -4.5275053    -3.685624 
    4280   0.56412681            0   0.94052501   0.84576712    -4.532795   -3.6870279 
    4290   0.56849601            0   0.94780945   0.85231765   -4.5397191   -3.6874015 
    4300   0.57332748            0   0.95586458   0.85956122   -4.5465342   -3.6869729 
    4310   0.57789863            0    0.9634857   0.86641452   -4.5526657   -3.6862512 
    4320   0.58231215            0   0.97084403    0.8730315   -4.5580601   -3.6850286 
    4330   0.58634036            0   0.97755995   0.87907078   -4.5624731   -3.6834023 
    4340   0.58799046            0   0.98031103    0.8815447   -4.5633979   -3.6818532 
    4350   0.58538736            0   0.97597109     0.877642   -4.5576134   -3.6799714 
    4360   0.57995804            0   0.96691919   0.86950208    -4.547409   -3.6779069 
    4370   0.57572343            0   0.95985917   0.86315336   -4.5387085   -3.6755551 
    4380   0.57542695            0   0.95936487   0.86270886     -4.53578   -3.6730712 
    4390   0.57792209            0   0.96352483    0.8664497   -4.5366173   -3.6701676 
    4400   0.57916551            0   0.96559788    0.8683139   -4.5345468   -3.6662329 
    4410   0.57707328            0   0.96210967   0.86517712   -4.5276566   -3.6624795 
    4420   0.57427179            0   0.95743896   0.86097698   -4.5196363   -3.6586593 
    4430   0.57455329            0   0.95790828   0.86139902   -4.5158223   -3.6544233 
    4440   0.57884942            0   0.96507088   0.86783999   -4.5175912   -3.6497512 
    4450   0.58534036            0   0.97589273   0.87757154   -4.5225165   -3.6449449 
    4460   0.59144337            0   0.98606781   0.88672147   -4.5272342   -3.6405128 
    4470   0.59453095            0   0.99121549   0.89135053   -4.5273736    -3.636023 
    4480   0.59354821            0   0.98957704   0.88987715   -4.5217374   -3.6318603 
    4490   0.59138128            0   0.98596429   0.88662839   -4.5149358   -3.6283074 
    4500   0.59142239            0   0.98603283   0.88669002     -4.51161     -3.62492 
    4510   0.59447788            0   0.99112701   0.89127097     -4.51264    -3.621369 
    4520   0.59883216            0   0.99838656   0.89779912   -4.5157063   -3.6179072 
    4530   0.60218191            0    1.0039713   0.90282123   -4.5173852    -3.614564 
    4540   0.60396755            0    1.0069484   0.90549835   -4.5174762   -3.6119779 
    4550    0.6047697            0    1.0082858   0.90670097   -4.5162755   -3.6095745 
    4560   0.60584985            0    1.0100866   0.90832039   -4.5157322   -3.6074118 
    4570   0.60825003            0    1.0140882   0.91191886   -4.5174128   -3.6054939 
    4580   0.61156331            0    1.0196122   0.91688629     -4.52097   -3.6040837 
    4590    0.6144321            0    1.0243951   0.92118732    -4.523786   -3.6025987 
    4600   0.61592389            0    1.0268823   0.92342389   -4.5253245   -3.6019006 
    4610   0.61789995            0    1.0301768    0.9263865   -4.5283127   -3.6019262 
    4620   0.62211435            0    1.0372032   0.93270494   -4.5350323   -3.6023274 
    4630    0.6268363            0    1.0450757   0.93978432   -4.5432038   -3.6034194 
    4640   0.62945432            0    1.0494405   0.94370939   -4.5490777   -3.6053683 
    4650   0.62855065            0    1.0479339   0.94235456   -4.5507365    -3.608382 
    4660   0.62375706            0    1.0399419   0.93516778   -4.5474379   -3.6122701 
    4670   0.61547443            0    1.0261329   0.92275004   -4.5397191    -3.616969 
    4680   0.60581699            0    1.0100318   0.90827112   -4.5300624   -3.6217913 
    4690    0.5975702            0   0.99628259   0.89590712   -4.5227595   -3.6268524 
    4700   0.59159114            0   0.98631417   0.88694302   -4.5189307   -3.6319877 
    4710   0.58720366            0   0.97899927   0.88036509   -4.5167802   -3.6364151 
    4720   0.58388893            0   0.97347287   0.87539548   -4.5156731   -3.6402776 
    4730   0.58236579            0   0.97093345   0.87311191   -4.5160732   -3.6429613 
    4740   0.58373772            0   0.97322076   0.87516877   -4.5202516   -3.6450828 
    4750    0.5865906            0   0.97797716   0.87944596   -4.5258812   -3.6464352 
    4760   0.58796295            0   0.98026517   0.88150345   -4.5294377   -3.6479342 
    4770   0.58667539            0   0.97811852   0.87957308   -4.5279757   -3.6484026 
    4780   0.58340235            0   0.97266164   0.87466598   -4.5234686   -3.6488027 
    4790   0.57943121            0   0.96604085   0.86871223   -4.5171069   -3.6483947 
    4800   0.57651328            0   0.96117602   0.86433754   -4.5119472   -3.6476096 
    4810   0.57484586            0   0.95839606   0.86183765   -4.5082483   -3.6464107 
    4820   0.57374972            0   0.95656855   0.86019427   -4.5045358   -3.6443415 
    4830   0.57482529            0   0.95836176   0.86180681   -4.5038525   -3.6420457 
    4840   0.57934013            0   0.96588901   0.86857569   -4.5072486   -3.6386729 
    4850   0.58594119            0   0.97689444   0.87847232   -4.5137088   -3.6352364 
    4860   0.59272592            0   0.98820611   0.88864434   -4.5200337   -3.6313894 
    4870   0.59885071            0   0.99841748   0.89782692   -4.5257988   -3.6279719 
    4880   0.60396029            0    1.0069363   0.90548746    -4.530386   -3.6248986 
    4890   0.60770248            0    1.0131754   0.91109794   -4.5334098   -3.6223118 
    4900   0.60928894            0    1.0158204   0.91347645   -4.5334347   -3.6199582 
    4910   0.60748734            0    1.0128167   0.91077539   -4.5294427   -3.6186673 
    4920   0.60220802            0    1.0040149   0.90286037   -4.5205106   -3.6176502 
    4930   0.59681371            0   0.99502135   0.89477295   -4.5115818   -3.6168088 
    4940   0.59595056            0    0.9935823   0.89347888    -4.509271   -3.6157921 
    4950   0.60073903            0    1.0015657   0.90065799   -4.5155478   -3.6148898 
    4960   0.60760533            0    1.0130134   0.91095229   -4.5254274   -3.6144751 
    4970   0.61175635            0    1.0199341    0.9171757   -4.5313591   -3.6141834 
    4980   0.61205449            0    1.0204311    0.9176227   -4.5320538   -3.6144311 
    4990   0.61028633            0    1.0174832   0.91497178   -4.5299212   -3.6149494 
    5000   0.60871083            0    1.0148565   0.91260971   -4.5283025   -3.6156927 
    5010   0.60934399            0    1.0159121   0.91355898   -4.5300363   -3.6164773 
    5020   0.61115973            0    1.0189394   0.91628122   -4.5342748   -3.6179936 
    5030   0.60934013            0    1.0159057    0.9135532   -4.5329413   -3.6193881 
    5040   0.60087677            0    1.0017954   0.90086449    -4.521761   -3.6208965 
    5050   0.58804891            0   0.98040849   0.88163233   -4.5035838   -3.6219514 
    5060   0.57628974            0   0.96080333   0.86400239   -4.4870589   -3.6230565 
    5070   0.57050751            0   0.95116306   0.85533339   -4.4790109   -3.6236775 
    5080   0.57215782            0   0.95391449    0.8578076   -4.4812997   -3.6234921 
    5090   0.57872088            0   0.96485659   0.86764728   -4.4897071   -3.6220598 
    5100   0.58737499            0   0.97928491   0.88062195   -4.5008405   -3.6202185 
    5110   0.59646978            0   0.99444794   0.89425731   -4.5123523    -3.618095 
    5120   0.60489378            0    1.0084926     0.906887    -4.522577     -3.61569 
    5130   0.61136357            0    1.0192792   0.91658683   -4.5300068     -3.61342 
    5140   0.61538176            0    1.0259784    0.9226111   -4.5341837   -3.6115726 
    5150   0.61780927            0    1.0300256   0.92625055   -4.5360412   -3.6097906 
    5160   0.61818653            0    1.0306546   0.92681616   -4.5354645   -3.6086484 
    5170   0.61525312            0     1.025764   0.92241824   -4.5307089   -3.6082907 
    5180   0.60939486            0    1.0159969   0.91363524   -4.5217859   -3.6081507 
    5190     0.603694            0    1.0064923   0.90508822   -4.5132505   -3.6081623 
    5200   0.60228215            0    1.0041385   0.90297151   -4.5115715      -3.6086 
    5210   0.60472202            0    1.0082063   0.90662949   -4.5160483   -3.6094188 
    5220   0.60683223            0    1.0117245   0.90979322   -4.5196535   -3.6098603 
    5230   0.60558914            0     1.009652   0.90792952   -4.5188927   -3.6109632 
    5240   0.60083373            0    1.0017236   0.90079997   -4.5128983   -3.6120983 
    5250    0.5952163            0   0.99235811   0.89237803   -4.5061751    -3.613797 
    5260   0.59144178            0   0.98606516   0.88671909   -4.5030724   -3.6163533 
    5270   0.58972325            0   0.98319997   0.88414258   -4.5031265    -3.618984 
    5280   0.58920541            0   0.98233662   0.88336621   -4.5056292    -3.622263 
    5290   0.58925023            0   0.98241135   0.88343341   -4.5091717   -3.6257383 
    5300   0.58929523            0   0.98248638   0.88350088   -4.5127658   -3.6292649 
    5310   0.58926027            0   0.98242809   0.88344846   -4.5166696   -3.6332212 
    5320   0.58975781            0   0.98325759   0.88419439     -4.52171   -3.6375156 
    5330   0.59057603            0   0.98462176   0.88542111   -4.5272918   -3.6418706 
    5340   0.59065788            0   0.98475821   0.88554382   -4.5315681   -3.6460242 
    5350   0.58999217            0   0.98364832   0.88454575   -4.5345325   -3.6499867 
    5360   0.58883343            0   0.98171645   0.88280852   -4.5369607   -3.6541522 
    5370   0.58747286            0   0.97944808   0.88076869   -4.5389673   -3.6581986 
    5380   0.58697365            0   0.97861578   0.88002024    -4.541994   -3.6619737 
    5390   0.58716571            0   0.97893599   0.88030819   -4.5454603   -3.6651521 
    5400   0.58667242            0   0.97811356   0.87956862   -4.5472986   -3.6677299 
    5410   0.58537144            0   0.97594455   0.87761814    -4.547764   -3.6701459 
    5420   0.58380794            0   0.97333784   0.87527406   -4.5474039   -3.6721299 
    5430   0.58225306            0   0.97074551    0.8729429   -4.5466015   -3.6736586 
    5440   0.58091427            0   0.96851344   0.87093571    -4.545814   -3.6748783 
    5450   0.57991115            0   0.96684102   0.86943179   -4.5446595   -3.6752277 
    5460   0.57908868            0   0.96546979   0.86819871   -4.5433367    -3.675138 
    5470   0.57948361            0   0.96612822    0.8687908   -4.5433004   -3.6745096 
    5480   0.58197873            0   0.97028814   0.87253161    -4.545804   -3.6732724 
    5490   0.58561761            0   0.97635497   0.87798721    -4.549372   -3.6713848 
    5500   0.58950379            0    0.9828341   0.88381356   -4.5529001   -3.6690866 
    5510   0.59279892            0    0.9883278   0.88875378   -4.5550946   -3.6663408 
    5520   0.59429119            0   0.99081575   0.89099107   -4.5538039   -3.6628128 
    5530   0.59423372            0   0.99071994    0.8909049   -4.5499848   -3.6590799 
    5540   0.59442445            0   0.99103793   0.89119086   -4.5460306   -3.6548398 
    5550     0.596628            0   0.99471174   0.89449453   -4.5449178   -3.6504232 
    5560   0.60062233            0    1.0013712   0.90048302   -4.5460426   -3.6455596 
    5570   0.60473949            0    1.0082354   0.90665568   -4.5477106   -3.6410549 
    5580   0.60713455            0    1.0122285   0.91024648   -4.5464527   -3.6362062 
    5590   0.60730178            0    1.0125073   0.91049719   -4.5419244   -3.6314272 
    5600   0.60648427            0    1.0111443   0.90927154   -4.5363386   -3.6270671 
    5610   0.60504644            0    1.0087471   0.90711587   -4.5301775   -3.6230616 
    5620   0.60237805            0    1.0042984   0.90311529   -4.5222615   -3.6191462 
    5630   0.59881135            0   0.99835186   0.89776791   -4.5138266   -3.6160587 
    5640   0.59512209            0   0.99220105    0.8922368   -4.5051503   -3.6129135 
    5650   0.59325267            0   0.98908432   0.88943407   -4.4994001   -3.6099661 
    5660   0.59559286            0   0.99298592   0.89294259   -4.4994742   -3.6065316 
    5670   0.60082565            0    1.0017101   0.90078785   -4.5042872   -3.6034994 
    5680   0.60454997            0    1.0079194   0.90637154   -4.5077205    -3.601349 
    5690   0.60444553            0    1.0077453   0.90621496   -4.5056873   -3.5994724 
    5700   0.60196843            0    1.0036154   0.90250117   -4.5002572    -3.597756 
    5710   0.60008952            0    1.0004829   0.89968421   -4.4956944   -3.5960102 
    5720   0.59945454            0   0.99942421   0.89873222   -4.4932222     -3.59449 
    5730   0.60019033            0    1.0006509   0.89983536    -4.493269   -3.5934337 
    5740   0.60417288            0    1.0072907    0.9058062    -4.498562   -3.5927558 
    5750   0.61170079            0    1.0198414    0.9170924   -4.5091966   -3.5921042 
    5760   0.61918518            0    1.0323196   0.92831338   -4.5199298   -3.5916165 
    5770   0.62118224            0    1.0356491   0.93130747   -4.5229635    -3.591656 
    5780   0.61594925            0    1.0269246   0.92346191   -4.5160005   -3.5925386 
    5790   0.60777792            0    1.0133011   0.91121105   -4.5048166   -3.5936056 
    5800    0.6014518            0    1.0027541   0.90172661     -4.49671   -3.5949834 
    5810   0.59769689            0   0.99649382   0.89609706   -4.4920857   -3.5959886 
    5820   0.59567175            0   0.99311746   0.89306088   -4.4904114   -3.5973505 
    5830   0.59421311            0   0.99068557     0.890874   -4.4885402   -3.5976662 
    5840    0.5926544            0   0.98808686   0.88853711   -4.4865766   -3.5980394 
    5850   0.59183248            0   0.98671654   0.88730484   -4.4856164   -3.5983115 
    5860    0.5931978            0   0.98899283    0.8893518   -4.4875239   -3.5981721 
    5870   0.59747345            0    0.9961213   0.89576208   -4.4936196   -3.5978576 
    5880   0.60282434            0    1.0050424   0.90378438   -4.5014262   -3.5976418 
    5890   0.60692403            0    1.0118775   0.90993086   -4.5077358   -3.5978049 
    5900   0.60865455            0    1.0147627   0.91252533   -4.5104049   -3.5978796 
    5910   0.60742133            0    1.0127066   0.91067642   -4.5090827   -3.5984063 
    5920   0.60418328            0    1.0073081   0.90582178   -4.5040485   -3.5982267 
    5930   0.60177031            0    1.0032851   0.90220414   -4.5008862   -3.5986821 
    5940   0.60244514            0    1.0044102   0.90321587   -4.5027791   -3.5995633 
    5950   0.60625772            0    1.0107666   0.90893188    -4.509281   -3.6003491 
    5960   0.61165381            0    1.0197631   0.91702197   -4.5185211   -3.6014991 
    5970   0.61613254            0    1.0272301   0.92373671   -4.5266266   -3.6028899 
    5980   0.61807071            0    1.0304615   0.92664251   -4.5312366   -3.6045941 
    5990   0.61631484            0    1.0275341   0.92401002   -4.5307226   -3.6067125 
    6000    0.6109792            0    1.0186384   0.91601056   -4.5254827   -3.6094721 
    6010   0.60488986            0    1.0084861   0.90688112   -4.5193492   -3.6124681 
    6020     0.601148            0    1.0022476   0.90127114   -4.5171952    -3.615924 
    6030   0.60047144            0    1.0011196   0.90025681   -4.5189583   -3.6187015 
    6040   0.60151508            0    1.0028596   0.90182149   -4.5236049   -3.6217834 
    6050   0.60294083            0    1.0052366   0.90395903   -4.5288014   -3.6248423 
    6060   0.60376062            0    1.0066034   0.90518811   -4.5335604   -3.6283723 
    6070   0.60254853            0    1.0045826   0.90337089   -4.5355288   -3.6321579 
    6080   0.59834044            0   0.99756675    0.8970619   -4.5321222   -3.6350603 
    6090   0.59263122            0   0.98804822   0.88850236   -4.5266892   -3.6381868 
    6100    0.5882021            0   0.98066388   0.88186199   -4.5229065   -3.6410446 
    6110   0.58672213            0   0.97819645   0.87964315   -4.5225663   -3.6429232 
    6120     0.587496            0   0.97948665   0.88080337   -4.5258484   -3.6450451 
    6130   0.58803683            0   0.98038835   0.88161422   -4.5277903   -3.6461761 
    6140   0.58728515            0   0.97913513   0.88048726   -4.5278379   -3.6473507 
    6150   0.58633681            0   0.97755403   0.87906546   -4.5272763   -3.6482108 
    6160    0.5859961            0   0.97698598   0.87855465   -4.5268404   -3.6482857 
    6170   0.58661942            0    0.9780252   0.87948916   -4.5269605   -3.6474713 
    6180   0.58905799            0   0.98209085    0.8831452   -4.5295265   -3.6463813 
    6190   0.59283456            0   0.98838722   0.88880721   -4.5346056   -3.6457983 
    6200   0.59613324            0   0.99388687   0.89375276   -4.5388131   -3.6450604 
    6210   0.59830727            0   0.99751145   0.89701217   -4.5411243   -3.6441121 
    6220   0.59950278            0   0.99950464   0.89880455   -4.5422113   -3.6434067 
    6230   0.59921011            0   0.99901668   0.89836575   -4.5414043   -3.6430386 
    6240   0.59759661            0   0.99632663   0.89594672   -4.5386351   -3.6426883 
    6250   0.59586163            0   0.99343402   0.89334555   -4.5353599   -3.6420144 
    6260   0.59340354            0   0.98933585   0.88966026   -4.5313683   -3.6417081 
    6270   0.58973438            0   0.98321854   0.88415927   -4.5254608   -3.6413016 
    6280   0.58636454            0   0.97760026   0.87910703   -4.5196065   -3.6404994 
    6290   0.58416263            0   0.97392919   0.87580583    -4.515211   -3.6394052 
    6300   0.58314565            0   0.97223366   0.87428112   -4.5125858   -3.6383047 
    6310    0.5831364            0   0.97221824   0.87426725   -4.5109378   -3.6366706 
    6320   0.58390991            0   0.97350784   0.87542693   -4.5096606   -3.6342337 
    6330   0.58617706            0    0.9772877   0.87882596   -4.5107307   -3.6319047 
    6340   0.59102512            0   0.98537049   0.88609441   -4.5152438   -3.6291493 
    6350   0.59759074            0   0.99631683   0.89593791   -4.5219851   -3.6260472 
    6360   0.60318714            0    1.0056473   0.90432831   -4.5274584   -3.6231301 
    6370   0.60569815            0    1.0098337   0.90809296    -4.528652   -3.6205591 
    6380   0.60604225            0    1.0104074   0.90860884   -4.5266074   -3.6179986 
    6390   0.60669162            0      1.01149   0.90958241   -4.5253031   -3.6157207 
    6400   0.60782347            0    1.0133771   0.91127933   -4.5248106   -3.6135313 
    6410   0.60813138            0    1.0138904   0.91174096   -4.5230144   -3.6112734 
    6420   0.60779688            0    1.0133327   0.91123947   -4.5209863   -3.6097468 
    6430   0.60880779            0    1.0150182   0.91275508   -4.5210903   -3.6083352 
    6440   0.61139303            0    1.0193283     0.916631   -4.5236764   -3.6070454 
    6450   0.61243606            0    1.0210673   0.91819476   -4.5243206   -3.6061259 
    6460   0.61134531            0    1.0192488   0.91655946   -4.5219937   -3.6054343 
    6470   0.60983837            0    1.0167364   0.91430017   -4.5196294   -3.6053292 
    6480   0.60862707            0    1.0147169   0.91248413   -4.5180353   -3.6055512 
    6490   0.60713426            0     1.012228   0.91024604   -4.5160694   -3.6058234 
    6500   0.60473855            0    1.0082338   0.90665427   -4.5132215   -3.6065672 
    6510   0.60146539            0    1.0027767   0.90174699   -4.5094239   -3.6076769 
    6520    0.5973855            0   0.99597466   0.89563022    -4.504353   -3.6087228 
    6530   0.59363714            0   0.98972531   0.89001049   -4.4997211   -3.6097106 
    6540   0.59209917            0   0.98716117   0.88770468   -4.4983418   -3.6106371 
    6550   0.59313375            0   0.98888604   0.88925578    -4.501252   -3.6119963 
    6560   0.59498992            0   0.99198069   0.89203864   -4.5047876    -3.612749 
    6570   0.59684278            0   0.99506982   0.89481654   -4.5084832   -3.6136667 
    6580   0.59955053            0   0.99958424   0.89887613    -4.513655   -3.6147789 
    6590   0.60308635            0    1.0054792   0.90417721   -4.5198667   -3.6156895 
    6600   0.60683186            0    1.0117238   0.90979266   -4.5268914   -3.6170987 
    6610   0.60943689            0     1.016067   0.91369826   -4.5326716   -3.6189733 
    6620    0.6098399            0    1.0167389   0.91430246   -4.5357824   -3.6214799 
    6630   0.60835287            0    1.0142597   0.91207304   -4.5366081   -3.6245351 
    6640   0.60461908            0    1.0080346   0.90647515   -4.5347269   -3.6282517 
    6650   0.59807241            0   0.99711988   0.89666006   -4.5293659   -3.6327059 
    6660   0.58991243            0   0.98351538    0.8844262   -4.5219312    -3.637505 
    6670   0.58244155            0   0.97105977    0.8732255    -4.515377   -3.6421515 
    6680   0.57787595            0    0.9634479   0.86638052   -4.5127269   -3.6463463 
    6690   0.57771896            0   0.96318615   0.86614515   -4.5161187   -3.6499736 
    6700   0.58164561            0   0.96973276   0.87203218   -4.5249721   -3.6529399 
    6710   0.58674157            0   0.97822886    0.8796723   -4.5354146   -3.6557423 
    6720   0.58893733            0   0.98188968    0.8829643   -4.5412398   -3.6582755 
    6730   0.58594502            0   0.97690082   0.87847807   -4.5392564   -3.6607783 
    6740   0.57884535            0    0.9650641   0.86783389   -4.5307562   -3.6629223 
    6750   0.57123086            0   0.95236904   0.85641786   -4.5207765   -3.6643586 
    6760   0.56654084            0   0.94454974   0.84938636   -4.5141985   -3.6648122 
    6770   0.56591835            0   0.94351191   0.84845309    -4.512737   -3.6642839 
    6780   0.56911898            0   0.94884807   0.85325163   -4.5161188   -3.6628672 
    6790   0.57497639            0   0.95861368   0.86203335   -4.5226655   -3.6606322 
    6800   0.58082399            0   0.96836294   0.87080037   -4.5282471   -3.6574467 
    6810   0.58429977            0   0.97415783   0.87601143   -4.5289211   -3.6529097 
    6820   0.58539663            0   0.97598654    0.8776559   -4.5260344   -3.6483785 
    6830   0.58664189            0   0.97806268   0.87952286   -4.5226054   -3.6430826 
    6840   0.59121603            0   0.98568877   0.88638063   -4.5237881   -3.6374075 
    6850   0.59840234            0   0.99766996   0.89715471   -4.5282628   -3.6311081 
    6860   0.60341931            0    1.0060344    0.9046764   -4.5299536   -3.6252772 
    6870   0.60350834            0    1.0061828   0.90480987   -4.5245926   -3.6197828 
    6880   0.60068853            0    1.0014815   0.90058228   -4.5160396   -3.6154573 
    6890   0.59894134            0    0.9985686   0.89796281   -4.5092272   -3.6112644 
    6900   0.59989846            0    1.0001643   0.89939776    -4.507095   -3.6076972 
    6910   0.60263259            0    1.0047227    0.9034969   -4.5083611   -3.6048642 
    6920   0.60508072            0    1.0088043   0.90716727      -4.5095   -3.6023327 
    6930   0.60580544            0    1.0100126   0.90825381    -4.508621   -3.6003672 
    6940   0.60471334            0    1.0081918   0.90661647   -4.5053373   -3.5987208 
    6950   0.60167475            0    1.0031258   0.90206087   -4.4994694   -3.5974085 
    6960   0.59730505            0   0.99584053    0.8955096   -4.4922896     -3.59678 
    6970   0.59347843            0    0.9894607   0.88977254   -4.4855083   -3.5957358 
    6980   0.59157422            0   0.98628595   0.88691764   -4.4815872   -3.5946695 
    6990   0.59112748            0   0.98554114   0.88624787   -4.4800084   -3.5937605 
    7000   0.59201506            0   0.98702094   0.88757858   -4.4802267   -3.5926481 
    7010   0.59554613            0   0.99290803   0.89287254   -4.4840181   -3.5911455 
    7020   0.60186501            0     1.003443   0.90234612   -4.4916238   -3.5892777 
    7030   0.60873666            0    1.0148996   0.91264843   -4.5005253   -3.5878768 
    7040   0.61336549            0    1.0226169   0.91958821    -4.506518   -3.5869297 
    7050   0.61531239            0    1.0258628    0.9225071   -4.5089891    -3.586482 
    7060   0.61734634            0    1.0292538    0.9255565   -4.5117657   -3.5862092 
    7070    0.6218322            0    1.0367327   0.93228192   -4.5187642   -3.5864823 
    7080   0.62727029            0    1.0457993   0.94043499   -4.5278461   -3.5874112 
    7090   0.63042165            0    1.0510533   0.94515965   -4.5342484   -3.5890887 
    7100   0.62935295            0    1.0492715   0.94355742   -4.5356265   -3.5920691 
    7110   0.62419114            0    1.0406656   0.93581857   -4.5321758   -3.5963573 
    7120   0.61672323            0     1.028215    0.9246223   -4.5257659   -3.6011436 
    7130   0.60933115            0    1.0158907   0.91353972   -4.5198243   -3.6062846 
    7140   0.60336219            0    1.0059391   0.90459077   -4.5163013   -3.6117105 
    7150    0.5992507            0   0.99908436   0.89842661   -4.5151876    -3.616761 
    7160   0.59654604            0   0.99457509   0.89437165   -4.5159733   -3.6216017 
    7170   0.59462025            0   0.99136438   0.89148442   -4.5173736   -3.6258892 
    7180    0.5935737            0   0.98961954   0.88991537   -4.5192874    -3.629372 
    7190   0.59331675            0   0.98919115   0.88953014   -4.5220708   -3.6325407 
    7200    0.5932623            0   0.98910037   0.88944851   -4.5243279   -3.6348794 
    7210   0.59342468            0   0.98937109   0.88969195   -4.5262176   -3.6365257 
    7220   0.59403361            0   0.99038631   0.89060489   -4.5283998   -3.6377949 
    7230   0.59402295            0   0.99036853    0.8905889   -4.5293024   -3.6387135 
    7240   0.59180795            0   0.98667564   0.88726807   -4.5266448   -3.6393767 
    7250    0.5876011            0   0.97966189   0.88096096   -4.5207066   -3.6397456 
    7260   0.58432949            0   0.97420738   0.87605598   -4.5159603   -3.6399043 
    7270   0.58556387            0   0.97626537   0.87790663   -4.5177631   -3.6398564 
    7280   0.59175107            0   0.98658081   0.88718279   -4.5264496   -3.6392668 
    7290   0.59936766            0   0.99927936   0.89860196   -4.5369625   -3.6383606 
    7300    0.6040245            0    1.0070433   0.90558373   -4.5432009   -3.6376171 
    7310   0.60303596            0    1.0053952   0.90410166   -4.5407667   -3.6366651 
    7320   0.59658104            0   0.99463344   0.89442412   -4.5305683   -3.6361441 
    7330   0.58761122            0   0.97967875   0.88097611   -4.5169155   -3.6359394 
    7340   0.57953198            0   0.96620887   0.86886333   -4.5040849   -3.6352215 
    7350   0.57470846            0   0.95816698   0.86163166   -4.4953833   -3.6337517 
    7360   0.57412779            0   0.95719888   0.86076109    -4.492885   -3.6321239 
    7370   0.57656776            0   0.96126684   0.86441921   -4.4940786   -3.6296594 
    7380   0.57928764            0   0.96580149   0.86849699   -4.4946022   -3.6261052 
    7390   0.58157423            0   0.96961376   0.87192517   -4.4942268   -3.6223016 
    7400   0.58621858            0   0.97735691    0.8788882    -4.497117   -3.6182288 
    7410   0.59457629            0   0.99129108   0.89141851   -4.5056911   -3.6142726 
    7420   0.60390103            0    1.0068375   0.90539862   -4.5155308   -3.6101322 
    7430   0.61139951            0    1.0193391   0.91664072    -4.523285   -3.6066442 
    7440    0.6162837            0    1.0274822   0.92396334   -4.5278356   -3.6038722 
    7450   0.61802864            0    1.0303914   0.92657945   -4.5283852   -3.6018058 
    7460   0.61621119            0    1.0273613   0.92385463   -4.5244498   -3.6005951 
    7470    0.6118061            0     1.020017   0.91725029   -4.5173797   -3.6001294 
    7480   0.60754172            0    1.0129073   0.91085693   -4.5106274   -3.5997704 
    7490   0.60593116            0    1.0102222   0.90844229   -4.5080748   -3.5996326 
    7500   0.60643262            0    1.0110582    0.9091941   -4.5088013   -3.5996072 
    7510    0.6065008            0    1.0111719   0.90929633   -4.5089708   -3.5996745 
    7520   0.60495188            0    1.0085895   0.90697411   -4.5068811    -3.599907 
    7530   0.60261096            0    1.0046867   0.90346448   -4.5037713   -3.6003068 
    7540   0.60097756            0    1.0019634    0.9010156   -4.5019916    -3.600976 
    7550   0.60122429            0    1.0023748   0.90138552   -4.5026423   -3.6012568 
    7560   0.60538097            0    1.0093049   0.90761741   -4.5092942   -3.6016768 
    7570    0.6128035            0    1.0216799   0.91874564   -4.5214895   -3.6027438 
    7580   0.61822342            0    1.0307161   0.92687146   -4.5307417   -3.6038702 
    7590   0.61945929            0    1.0327766   0.92872434   -4.5341676   -3.6054433 
    7600   0.61761366            0    1.0296995   0.92595727   -4.5334092   -3.6074519 
    7610   0.61370602            0    1.0231846   0.92009875   -4.5300426   -3.6099438 
    7620   0.60876608            0    1.0149486   0.91269255   -4.5253835   -3.6126909 
    7630   0.60414247            0      1.00724   0.90576061   -4.5210812   -3.6153206 
    7640   0.60176173            0    1.0032708   0.90219127   -4.5201949   -3.6180036 
    7650   0.60215046            0    1.0039189   0.90277408   -4.5234281    -3.620654 
    7660   0.60391248            0    1.0068566   0.90541578   -4.5287174   -3.6233016 
    7670   0.60540127            0    1.0093387   0.90764785   -4.5335285   -3.6258806 
    7680   0.60522745            0    1.0090489   0.90738725   -4.5355539   -3.6281667 
    7690   0.60294021            0    1.0052356   0.90395811   -4.5346526   -3.6306944 
    7700   0.59940726            0   0.99934538   0.89866134   -4.5312921   -3.6326307 
    7710   0.59634425            0   0.99423866   0.89406911   -4.5284181    -3.634349 
    7720   0.59449239            0   0.99115119   0.89129271    -4.527171   -3.6358783 
    7730   0.59357379            0   0.98961969   0.88991551   -4.5267219   -3.6368064 
    7740   0.59327869            0   0.98912768   0.88947307   -4.5271553   -3.6376823 
    7750   0.59412083            0   0.99053172   0.89073565   -4.5289638   -3.6382281 
    7760   0.59699652            0   0.99532615   0.89504704   -4.5336203   -3.6385733 
    7770     0.601579            0    1.0029662   0.90191731   -4.5404384    -3.638521 
    7780   0.60493023            0    1.0085534   0.90694164   -4.5454231   -3.6384814 
    7790    0.6045511            0    1.0079213   0.90637324   -4.5452116   -3.6388384 
    7800   0.60042665            0    1.0010449   0.90018965   -4.5396343   -3.6394447 
    7810   0.59400371            0   0.99033647   0.89056007    -4.530247   -3.6396869 
    7820   0.58820166            0   0.98066316   0.88186135   -4.5217351   -3.6398737 
    7830   0.58619069            0   0.97731042    0.8788464   -4.5185239   -3.6396775 
    7840   0.58867053            0   0.98144486   0.88256429   -4.5217534   -3.6391891 
    7850   0.59307004            0   0.98877983   0.88916026   -4.5269892   -3.6378289 
    7860   0.59567739            0   0.99312686   0.89306933   -4.5299465   -3.6368772 
    7870   0.59552548            0   0.99287359   0.89284157   -4.5288917   -3.6360502 
    7880   0.59501217            0   0.99201778   0.89207199   -4.5267703   -3.6346983 
    7890   0.59559686            0    0.9929926   0.89294859   -4.5264734   -3.6335248 
    7900   0.59654311            0   0.99457021   0.89436726   -4.5268007   -3.6324334 
    7910   0.59876699            0   0.99827791   0.89770141   -4.5286441   -3.6309427 
    7920   0.60248707            0    1.0044801   0.90327875   -4.5333187   -3.6300399 
    7930   0.60527462            0    1.0091276   0.90745798   -4.5359929   -3.6285349 
    7940   0.60586875            0    1.0101181   0.90834872   -4.5358137    -3.627465 
    7950    0.6041595            0    1.0072684   0.90578613   -4.5325154   -3.6267293 
    7960   0.60073682            0    1.0015621   0.90065468   -4.5266896   -3.6260349 
    7970   0.59622465            0   0.99403926   0.89388981   -4.5190507   -3.6251609 
    7980   0.59172739            0   0.98654132   0.88714728   -4.5114131   -3.6242659 
    7990   0.58916408            0   0.98226772   0.88330424   -4.5064045   -3.6231003 
    8000   0.58880217            0   0.98166434   0.88276166   -4.5044782   -3.6217166 
    8010    0.5899291            0   0.98354317    0.8844512   -4.5042097   -3.6197585 
    8020   0.59278795            0   0.98830953   0.88873734   -4.5061551   -3.6174178 
    8030   0.59730296            0   0.99583704   0.89550646   -4.5098611   -3.6143546 
    8040   0.60146398            0    1.0027744   0.90174488   -4.5125041   -3.6107592 
    8050   0.60430245            0    1.0075067   0.90600044   -4.5129857   -3.6069853 
    8060   0.60738761            0    1.0126504   0.91062588   -4.5130856   -3.6024598 
    8070   0.61125056            0    1.0190908    0.9164174   -4.5140734    -3.597656 
    8080   0.61529263            0    1.0258298   0.92247748   -4.5153597   -3.5928822 
    8090   0.62005981            0    1.0337778   0.92962467   -4.5169252   -3.5873005 
    8100   0.62466965            0    1.0414634   0.93653597   -4.5186955   -3.5821595 
    8110   0.62627381            0    1.0441379   0.93894102   -4.5159638   -3.5770228 
    8120   0.62427487            0    1.0408052    0.9359441   -4.5080836   -3.5721395 
    8130   0.62134059            0    1.0359131   0.93154489   -4.4993306   -3.5677857 
    8140   0.62009203            0    1.0338315   0.92967297   -4.4932011   -3.5635281 
    8150   0.61971492            0    1.0332028   0.92910759   -4.4887439   -3.5596364 
    8160   0.61749957            0    1.0295093   0.92578622   -4.4818309   -3.5560447 
    8170   0.61319541            0    1.0223333   0.91933322   -4.4719396   -3.5526064 
    8180    0.6099679            0    1.0169523   0.91449438   -4.4639955   -3.5495012 
    8190   0.61173721            0    1.0199022   0.91714701   -4.4630452   -3.5458981 
    8200   0.61877458            0     1.031635   0.92769778   -4.4703518    -3.542654 
    8210   0.62781631            0    1.0467096    0.9412536   -4.4807063   -3.5394528 
    8220   0.63484856            0    1.0584339    0.9517967   -4.4887046   -3.5369079 
    8230   0.63744855            0    1.0627687   0.95569473   -4.4908222   -3.5351275 
    8240   0.63621386            0    1.0607102   0.95384364   -4.4875932   -3.5337496 
    8250    0.6333534            0    1.0559411   0.94955508   -4.4836809   -3.5341259 
    8260   0.63066479            0    1.0514586   0.94552418   -4.4805817   -3.5350575 
    8270   0.62836467            0    1.0476238   0.94207573   -4.4797296   -3.5376539 
    8280   0.62624045            0    1.0440823   0.93889099   -4.4806797   -3.5417888 
    8290   0.62536278            0     1.042619   0.93757515   -4.4847692   -3.5471941 
    8300   0.62519182            0     1.042334   0.93731883   -4.4922475   -3.5549287 
    8310   0.62230241            0    1.0375167   0.93298689    -4.496955   -3.5639681 
    8320   0.61501253            0    1.0253628   0.92205754   -4.4960419   -3.5739843 
    8330    0.6058152            0    1.0100289   0.90826845   -4.4909849   -3.5827164 
    8340   0.59892281            0    0.9985377   0.89793503   -4.4885163   -3.5905813 
    8350   0.59640212            0   0.99433514   0.89415588   -4.4911166   -3.5969607 
    8360   0.59733211            0   0.99588564   0.89555016   -4.4976276   -3.6020774 
    8370   0.59995021            0    1.0002506   0.89947536   -4.5057496   -3.6062742 
    8380   0.60191161            0    1.0035207   0.90241598   -4.5122341   -3.6098182 
    8390   0.60151753            0    1.0028637   0.90182516   -4.5147065   -3.6128813 
    8400   0.60012565            0    1.0005431   0.89973838   -4.5155218   -3.6157835 
    8410   0.60019519            0     1.000659   0.89984263   -4.5183977   -3.6185551 
    8420   0.60194289            0    1.0035728   0.90246287   -4.5235897   -3.6211269 
    8430   0.60323676            0      1.00573   0.90440272   -4.5277699   -3.6233672 
    8440    0.6022155            0    1.0040273   0.90287159   -4.5286114   -3.6257398 
    8450   0.59862819            0    0.9980465   0.89749332   -4.5252835   -3.6277902 
    8460   0.59370906            0   0.98984522   0.89011831   -4.5200217   -3.6299034 
    8470   0.58939097            0   0.98264599   0.88364441   -4.5155244     -3.63188 
    8480   0.58636074            0   0.97759393   0.87910134   -4.5129727   -3.6338714 
    8490   0.58431445            0    0.9741823   0.87603343   -4.5111471   -3.6351136 
    8500   0.58301028            0   0.97200796   0.87407816   -4.5097825   -3.6357044 
    8510   0.58254015            0   0.97122415   0.87337332   -4.5094575   -3.6360842 
    8520    0.5822897            0   0.97080659   0.87299783   -4.5086485   -3.6356506 
    8530   0.58256064            0   0.97125832   0.87340404   -4.5083312   -3.6349271 
    8540   0.58468927            0   0.97480722   0.87659539   -4.5098085   -3.6332131 
    8550   0.58771223            0   0.97984716   0.88112756   -4.5126325    -3.631505 
    8560   0.58984485            0   0.98340271   0.88432489   -4.5137302   -3.6294053 
    8570   0.59185529            0   0.98675457   0.88733905    -4.513892    -3.626553 
    8580   0.59639488            0   0.99432307   0.89414502   -4.5174919   -3.6233469 
    8590   0.60530496            0    1.0091782   0.90750345   -4.5273425    -3.619839 
    8600   0.61678344            0    1.0283153   0.92471258   -4.5412691   -3.6165566 
    8610   0.62549321            0    1.0428365   0.93777069   -4.5512101   -3.6134394 
[...]
    7860   0.58979166            0   0.98331403   0.88424514   -4.5038173   -3.6195722 
    7870   0.58889175            0   0.98181368   0.88289595   -4.4991695   -3.6162735 
    7880   0.58964975            0   0.98307744   0.88403239   -4.4974366   -3.6134042 
    7890   0.59140121            0   0.98599751   0.88665826   -4.4971121   -3.6104539 
    7900   0.59357351            0   0.98961922   0.88991508   -4.4980344   -3.6081193 
    7910   0.59595012            0   0.99358155   0.89347821   -4.4990392    -3.605561 
    7920   0.59832653            0   0.99754357   0.89704105   -4.4999977   -3.6029566 
    7930   0.60029916            0    1.0008324   0.89999852   -4.5007374   -3.6007389 
    7940   0.60159923            0    1.0029999   0.90194765    -4.500641   -3.5986933 
    7950   0.60345779            0    1.0060985    0.9047341   -4.5013099   -3.5965758 
    7960   0.60747536            0    1.0127967   0.91075744   -4.5052455    -3.594488 
    7970   0.61327066            0    1.0224588   0.91944603   -4.5122614   -3.5928153 
    7980   0.61876076            0     1.031612   0.92767707   -4.5189207   -3.5912437 
    7990   0.62174341            0    1.0365847    0.9321488   -4.5224781   -3.5903293 
    8000   0.62185413            0    1.0367693    0.9323148   -4.5225794   -3.5902646 
    8010     0.620711            0    1.0348635   0.93060096   -4.5213571   -3.5907561 
    8020   0.61985832            0    1.0334419   0.92932259   -4.5215034   -3.5921808 
    8030   0.61902254            0    1.0320484   0.92806955   -4.5223079   -3.5942383 
    8040   0.61817226            0    1.0306308   0.92679475   -4.5236615   -3.5968668 
    8050   0.61780101            0    1.0300119   0.92623817   -4.5266054   -3.6003672 
    8060   0.61671468            0    1.0282007   0.92460949   -4.5290927   -3.6044832 
    8070   0.61286665            0    1.0217852   0.91884032   -4.5280225   -3.6091822 
    8080   0.60550981            0    1.0095197   0.90781058   -4.5219411   -3.6141306 
    8090   0.59582429            0   0.99337177   0.89328957   -4.5125677   -3.6192781 
    8100   0.58582653            0   0.97670328   0.87830043   -4.5023708   -3.6240703 
    8110   0.57764597            0   0.96306446   0.86603571   -4.4941806   -3.6281449 
    8120   0.57417522            0   0.95727795   0.86083219   -4.4921159   -3.6312837 
    8130   0.57749166            0   0.96280719   0.86580437   -4.4994076   -3.6336032 
    8140   0.58588669            0   0.97680359   0.87839063   -4.5134365   -3.6350459 
    8150   0.59514123            0   0.99223295   0.89226548   -4.5284098   -3.6361443 
    8160   0.60114142            0    1.0022366   0.90126127   -4.5384467   -3.6371854 
    8170    0.6017432            0    1.0032399   0.90216349   -4.5406191   -3.6384557 
    8180   0.59852696            0   0.99787772   0.89734154   -4.5367001   -3.6393586 
    8190   0.59487945            0   0.99179651   0.89187301   -4.5324539   -3.6405809 
    8200   0.59341232            0   0.98935048   0.88967342   -4.5309482   -3.6412748 
    8210   0.59371922            0   0.98986215   0.89013354   -4.5323642   -3.6422307 
    8220   0.59362327            0   0.98970219   0.88998969   -4.5327311   -3.6427414 
    8230   0.59278497            0   0.98830454   0.88873286   -4.5319398   -3.6432069 
    8240   0.59101741            0   0.98535764   0.88608285   -4.5294358    -3.643353 
    8250   0.58867575            0   0.98145357   0.88257212   -4.5257665   -3.6431944 
    8260   0.58545633            0   0.97608607    0.8777454   -4.5203271   -3.6425817 
    8270   0.58171008            0   0.96984024   0.87212884    -4.513463   -3.6413342 
    8280   0.58096505            0   0.96859811   0.87101185   -4.5107031   -3.6396912 
    8290   0.58586411            0   0.97676594   0.87835677    -4.515698   -3.6373413 
    8300   0.59450607            0     0.991174   0.89131322   -4.5252595   -3.6339463 
    8310   0.60305152            0    1.0054212   0.90412499   -4.5339657   -3.6298407 
    8320   0.60878242            0    1.0149759   0.91271705   -4.5373778   -3.6246608 
    8330   0.61089698            0    1.0185013   0.91588729   -4.5342179   -3.6183306 
    8340   0.61034771            0    1.0175856   0.91506381   -4.5274068   -3.6123429 
    8350   0.60968407            0    1.0164791   0.91406884    -4.519771   -3.6057021 
    8360   0.61067634            0    1.0181334    0.9155565   -4.5148322   -3.5992757 
    8370   0.61439084            0    1.0243263   0.92112546   -4.5133665    -3.592241 
    8380   0.61845797            0    1.0311072   0.92722312   -4.5132227   -3.5859996 
    8390   0.61877582            0    1.0316371   0.92769965   -4.5079277    -3.580228 
    8400   0.61636173            0    1.0276123   0.92408033    -4.499714   -3.5756337 
    8410   0.61339294            0    1.0226626   0.91962937   -4.4914892   -3.5718598 
    8420   0.61164525            0    1.0197488   0.91700914   -4.4854431    -3.568434 
    8430   0.61183916            0    1.0200721   0.91729986   -4.4828823   -3.5655824 
    8440    0.6141724            0    1.0239622   0.92079797   -4.4841038   -3.5633058 
    8450   0.61897379            0    1.0319671   0.92799645   -4.4901774   -3.5621809 
    8460    0.6264844            0     1.044489   0.93925673   -4.5009379   -3.5616812 
    8470   0.63407516            0    1.0571445   0.95063718   -4.5122723   -3.5616352 
    8480   0.63744376            0    1.0627607   0.95568756   -4.5189869   -3.5632993 
    8490   0.63444751            0    1.0577653   0.95119543   -4.5167901   -3.5655946 
    8500   0.62605289            0    1.0437696    0.9386098   -4.5071689   -3.5685591 
    8510   0.61717484            0    1.0289679   0.92529939   -4.4973567   -3.5720573 
    8520   0.61255768            0    1.0212701   0.91837711   -4.4941718   -3.5757947 
    8530   0.61072955            0    1.0182222   0.91563627   -4.4950468   -3.5794105 
    8540   0.60938926            0    1.0159876   0.91362684   -4.4961012   -3.5824743 
    8550   0.60823165            0    1.0140576   0.91189131   -4.4975187   -3.5856274 
    8560   0.60787937            0    1.0134703   0.91136315   -4.4995467   -3.5881836 
    8570   0.60823055            0    1.0140558   0.91188965   -4.5029501   -3.5910605 
    8580   0.60854225            0    1.0145754   0.91235697   -4.5059218   -3.5935648 
    8590   0.60927889            0    1.0158036   0.91346138   -4.5094306   -3.5959692 
    8600   0.61098921            0    1.0186551   0.91602557   -4.5145039   -3.5984783 
    8610   0.61260747            0    1.0213531   0.91845175   -4.5191642   -3.6007124 
    8620   0.61151553            0    1.0195326   0.91681465   -4.5201092   -3.6032946 
    8630   0.60577592            0    1.0099634   0.90820955    -4.513375   -3.6051655 
    8640   0.59674838            0   0.99491243     0.894675   -4.5023676   -3.6076926 
    8650   0.58826363            0   0.98076647   0.88195425   -4.4913969   -3.6094426 
    8660    0.5831039            0   0.97216405   0.87421853   -4.4850111   -3.6107926 
    8670    0.5818576            0    0.9700862   0.87235001   -4.4841069   -3.6117569 
    8680   0.58423037            0   0.97404212   0.87590738   -4.4877892   -3.6118818 
    8690   0.58935213            0   0.98258124   0.88358618   -4.4952298   -3.6116436 
    8700   0.59587747            0   0.99346044    0.8933693   -4.5047107   -3.6113414 
    8710   0.60113565            0     1.002227   0.90125263   -4.5118096    -3.610557 
    8720   0.60243264            0    1.0043894   0.90319714   -4.5131858   -3.6099887 
    8730   0.59991704            0    1.0001953   0.89942562   -4.5087646   -3.6093389 
    8740   0.59662649            0   0.99470922   0.89449226   -4.5034815   -3.6089892 
    8750   0.59572361            0   0.99320391   0.89313862   -4.5018941   -3.6087555 
    8760   0.59856342            0   0.99793851    0.8973962   -4.5054958   -3.6080996 
    8770   0.60364151            0    1.0064048   0.90500954   -4.5125246    -3.607515 
    8780   0.60754666            0    1.0129156   0.91086433   -4.5177133    -3.606849 
    8790   0.60855689            0    1.0145998   0.91237891   -4.5187682   -3.6063893 
    8800   0.60734015            0    1.0125713   0.91055472   -4.5168324   -3.6062777 
    8810   0.60617875            0     1.010635    0.9088135   -4.5151645    -3.606351 
    8820   0.60688264            0    1.0118085   0.90986879   -4.5164025   -3.6065337 
    8830   0.60904432            0    1.0154125   0.91310969   -4.5200888   -3.6069791 
    8840   0.61064555            0    1.0180821   0.91551034   -4.5232527   -3.6077424 
    8850   0.61000112            0    1.0170077   0.91454417   -4.5237718   -3.6092276 
    8860   0.60782308            0    1.0133764   0.91127875   -4.5224458   -3.6111671 
    8870   0.60562507            0    1.0097119   0.90798339    -4.521395   -3.6134116 
    8880   0.60326172            0    1.0057716   0.90444014   -4.5210042   -3.6165641 
    8890   0.59953749            0   0.99956251   0.89885659   -4.5192389   -3.6203823 
    8900   0.59539627            0   0.99265817   0.89264786   -4.5172879     -3.62464 
    8910   0.59200899            0   0.98701081   0.88756947   -4.5172181   -3.6296486 
    8920   0.58990423            0   0.98350172   0.88441392   -4.5190327   -3.6346188 
    8930    0.5899901            0   0.98364488   0.88454266   -4.5248819   -3.6403392 
    8940   0.59214401            0   0.98723593   0.88777191   -4.5334366   -3.6456647 
    8950   0.59407216            0   0.99045058   0.89066268   -4.5419127     -3.65125 
    8960   0.59385609            0   0.99009034   0.89033874   -4.5470844   -3.6567456 
    8970   0.59079345            0   0.98498425   0.88574709   -4.5477486   -3.6620015 
    8980   0.58519109            0   0.97564386   0.87734774   -4.5438351   -3.6664874 
    8990   0.57813403            0   0.96387816   0.86676744   -4.5371684   -3.6704009 
    9000   0.57258311            0   0.95462354   0.85844522   -4.5315763   -3.6731311 
    9010    0.5716791            0   0.95311636   0.85708989   -4.5325227   -3.6754328 
    9020   0.57484533            0   0.95839517   0.86183686    -4.538781   -3.6769442 
    9030    0.5785278            0   0.96453467    0.8673578   -4.5449652   -3.6776074 
    9040   0.58042838            0   0.96770335   0.87020724   -4.5479932   -3.6777859 
    9050    0.5817704            0   0.96994081   0.87221927    -4.549128   -3.6769087 
    9060   0.58390917            0   0.97350661   0.87542582   -4.5512213   -3.6757955 
    9070   0.58631754            0    0.9775219   0.87903657   -4.5532284   -3.6741918 
    9080   0.58930591            0   0.98250419   0.88351689   -4.5557316   -3.6722147 
    9090   0.59269429            0   0.98815336   0.88859691   -4.5586293   -3.6700324 
    9100   0.59467422            0   0.99145435   0.89156532   -4.5594438   -3.6678784 
    9110   0.59353866            0   0.98956112   0.88986283   -4.5549944   -3.6651315 
    9120   0.58946424            0   0.98276815   0.88375426   -4.5459483    -3.662194 
    9130   0.58445285            0   0.97441305   0.87624094    -4.534959   -3.6587181 
    9140   0.58109565            0   0.96881584   0.87120765   -4.5267024   -3.6554948 
    9150   0.58139721            0   0.96931862   0.87165977   -4.5233356   -3.6516758 
    9160   0.58547424            0   0.97611594   0.87777226   -4.5249504   -3.6471781 
    9170   0.59205341            0   0.98708487   0.88763607    -4.530291    -3.642655 
    9180   0.59990218            0    1.0001705   0.89940335   -4.5370385   -3.6376352 
    9190   0.60692371            0     1.011877   0.90993038   -4.5438518   -3.6339214 
    9200   0.61036939            0    1.0176217   0.91509631   -4.5450996   -3.6300033 
    9210   0.60984848            0    1.0167532   0.91431534   -4.5413262   -3.6270109 
    9220   0.60536763            0    1.0092826   0.90759742   -4.5325777   -3.6249803 
    9230    0.5976536            0   0.99642165   0.89603217   -4.5191354   -3.6231033 
    9240   0.59023404            0   0.98405158   0.88490839   -4.5068664    -3.621958 
    9250   0.58711592            0   0.97885298   0.88023354   -4.5004401   -3.6202066 
    9260   0.58980715            0   0.98333985   0.88426836   -4.5029607   -3.6186924 
    9270   0.59492847            0   0.99187824   0.89194651   -4.5091055    -3.617159 
    9280   0.59853656            0   0.99789374   0.89735594   -4.5132722   -3.6159163 
    9290   0.60037949            0    1.0009663   0.90011895   -4.5150485   -3.6149295 
    9300   0.60263286            0    1.0047232   0.90349731   -4.5175203    -3.614023 
    9310   0.60625925            0    1.0107692   0.90893418   -4.5216709   -3.6127367 
    9320    0.6092946            0    1.0158298   0.91348493   -4.5257647   -3.6122798 
    9330   0.60867586            0    1.0147982   0.91255729   -4.5250169   -3.6124596 
    9340   0.60334906            0    1.0059172   0.90457108   -4.5169631    -3.612392 
    9350   0.59523968            0   0.99239709   0.89241308   -4.5048683   -3.6124552 
    9360   0.58734378            0   0.97923288   0.88057516   -4.4931243   -3.6125492 
    9370   0.58237562            0   0.97094984   0.87312664   -4.4853461   -3.6122195 
    9380   0.58105354            0   0.96874565   0.87114452   -4.4825823   -3.6114378 
    9390   0.58352086            0   0.97285922   0.87484365   -4.4849826    -3.610139 
    9400   0.58963839            0   0.98305851   0.88401536   -4.4922209   -3.6082055 
    9410   0.59667384            0   0.99478816   0.89456325   -4.5007119   -3.6061487 
    9420   0.60173569            0    1.0032274   0.90215223   -4.5061014   -3.6039492 
    9430   0.60503222            0    1.0087234   0.90709456   -4.5091546   -3.6020601 
    9440   0.60830897            0    1.0141865   0.91200722   -4.5115399   -3.5995327 
    9450   0.61177685            0    1.0199683   0.91720645   -4.5150448   -3.5978384 
    9460   0.61475757            0    1.0249378   0.92167529   -4.5178081   -3.5961328 
    9470   0.61659952            0    1.0280087   0.92443683   -4.5195909    -3.595154 
    9480   0.61662101            0    1.0280445   0.92446905    -4.519012    -3.594543 
    9490   0.61496806            0    1.0252887   0.92199086   -4.5160655   -3.5940746 
    9500   0.61190439            0    1.0201809   0.91739765   -4.5117468   -3.5943492 
    9510   0.60843979            0    1.0144046   0.91220336   -4.5071168   -3.5949135 
    9520   0.60632843            0    1.0108845   0.90903791   -4.5047279     -3.59569 
    9530   0.60507274            0     1.008791    0.9071553   -4.5045184   -3.5973631 
    9540   0.60447659            0    1.0077971   0.90626153   -4.5052603   -3.5989987 
    9550   0.60567912            0     1.009802   0.90806442   -4.5088336   -3.6007692 
    9560   0.60760234            0    1.0130084   0.91094781   -4.5142206   -3.6032728 
    9570   0.60709233            0    1.0121581   0.91018318   -4.5165455   -3.6063624 
    9580   0.60271986            0    1.0048682   0.90362775   -4.5136251   -3.6099974 
    9590   0.59708831            0   0.99547917   0.89518465   -4.5094932   -3.6143085 
    9600    0.5940915            0   0.99048282   0.89069168   -4.5098466   -3.6191549 
    9610   0.59437241            0   0.99095116   0.89111283   -4.5154381   -3.6243252 
    9620   0.59559867            0   0.99299562   0.89295131   -4.5231356   -3.6301843 
    9630   0.59507909            0   0.99212937   0.89217233   -4.5280681   -3.6358957 
    9640   0.59073453            0     0.984886   0.88565874   -4.5276204   -3.6419617 
    9650   0.58309877            0   0.97215549   0.87421082   -4.5215648    -3.647354 
    9660   0.57590441            0   0.96016089   0.86342468   -4.5156615   -3.6522369 
    9670   0.57264159            0   0.95472106   0.85853291   -4.5146415   -3.6561086 
    9680   0.57316057            0   0.95558631   0.85931099   -4.5186101   -3.6592992 
    9690   0.57497222            0   0.95860672    0.8620271   -4.5233658   -3.6613387 
    9700   0.57629885            0   0.96081852   0.86401606    -4.526608    -3.662592 
    9710   0.57742822            0   0.96270143   0.86570926   -4.5290854   -3.6633761 
    9720   0.57923946            0   0.96572116   0.86842476   -4.5317707    -3.663346 
    9730   0.58094301            0   0.96856136    0.8709788   -4.5337502   -3.6627714 
    9740   0.58151379            0   0.96951299   0.87183455   -4.5333373   -3.6615027 
    9750   0.58124981            0   0.96907287   0.87143878   -4.5312393   -3.6598006 
    9760   0.58006192            0   0.96709239   0.86965783   -4.5272022   -3.6575444 
    9770   0.57805239            0   0.96374206   0.86664505   -4.5216814   -3.6550364 
    9780   0.57745663            0   0.96274879   0.86575185   -4.5178748   -3.6521229 
    9790   0.57913779            0   0.96555166   0.86827233   -4.5162853    -3.648013 
    9800   0.58115158            0    0.9689091    0.8712915   -4.5148536    -3.643562 
    9810    0.5826626            0   0.97142831   0.87355691   -4.5123033   -3.6387464 
    9820   0.58508736            0   0.97547092   0.87719223   -4.5110202   -3.6338279 
    9830   0.58984246            0   0.98339873   0.88432131   -4.5133675   -3.6290462 
    9840   0.59713515            0   0.99555727   0.89525488   -4.5195071   -3.6242522 
    9850   0.60602377            0    1.0103766   0.90858113   -4.5283886   -3.6198075 
    9860   0.61527115            0     1.025794   0.92244527   -4.5388694   -3.6164242 
    9870   0.62318671            0     1.038991   0.93431267   -4.5485561   -3.6142434 
    9880   0.62800745            0    1.0470283   0.94154016   -4.5548803   -3.6133401 
    9890   0.62907418            0    1.0488067   0.94313946   -4.5563892   -3.6132497 
    9900   0.62621658            0    1.0440425   0.93885521   -4.5526997   -3.6138445 
    9910   0.62020254            0    1.0340157   0.92983865   -4.5450041   -3.6151654 
    9920   0.61333146            0    1.0225601   0.91953719   -4.5364835   -3.6169463 
    9930   0.60751477            0    1.0128624   0.91081652   -4.5293561   -3.6185396 
    9940   0.60283378            0    1.0050582   0.90379855   -4.5243027   -3.6205042 
    9950   0.59825809            0   0.99742946   0.89693844    -4.519344   -3.6224055 
    9960   0.59491543            0   0.99185651   0.89192696   -4.5160178   -3.6240908 
    9970   0.59518298            0   0.99230257   0.89232809   -4.5177111    -3.625383 
    9980   0.59832116            0   0.99753462   0.89703301   -4.5234359   -3.6264029 
    9990   0.60032871            0    1.0008817   0.90004282   -4.5275635   -3.6275207 
   10000   0.59868345            0   0.99813862   0.89757616   -4.5258428   -3.6282666 
Loop time of 6.64625 on 8 procs for 10000 steps with 2000 atoms

Performance: 129998.183 tau/day, 1504.609 timesteps/s
83.5% CPU use with 8 MPI tasks x no OpenMP threads

MPI task timing breakdown:
Section |  min time  |  avg time  |  max time  |%varavg| %total
---------------------------------------------------------------
Pair    | 1.4114     | 2.3488     | 3.4234     |  58.9 | 35.34
Neigh   | 0.032179   | 0.072561   | 0.11657    |  14.9 |  1.09
Comm    | 1.955      | 3.0165     | 3.9204     |  49.7 | 45.39
Output  | 0.16655    | 0.18319    | 0.2485     |   5.9 |  2.76
Modify  | 0.55162    | 0.65589    | 0.74861    |  10.7 |  9.87
Other   |            | 0.3694     |            |       |  5.56

Nlocal:    250 ave 279 max 222 min
Histogram: 3 1 0 0 0 0 0 1 0 3
Nghost:    1464.5 ave 1539 max 1394 min
Histogram: 4 0 0 0 0 0 0 0 0 4
Neighs:    15749 ave 22354 max 9457 min
Histogram: 4 0 0 0 0 0 0 0 1 3

Total # of neighbors = 125992
Ave neighs/atom = 62.996
Neighbor list builds = 52
Dangerous builds = 0
Total wall time: 0:00:17
