LAMMPS (7 Aug 2019)
echo 		screen
Created orthogonal box = (-7.2063 -7.2063 -12) to (8.7937 8.7937 12)
  2 by 2 by 2 MPI processor grid
Created 2560 atoms
  create_atoms CPU = 0.00136833 secs
Lattice spacing in x,y,z = 1.5874 1.5874 1.5874
Created 600 atoms
  create_atoms CPU = 0.000166231 secs
Created 600 atoms
  create_atoms CPU = 8.052e-05 secs
WARNING: Communication cutoff is 0.0. No ghost atoms will be generated. Atoms may get lost. (../comm_brick.cpp:166)
3760 atoms in group system
2560 atoms in group fluid
600 atoms in group bot
600 atoms in group top
1200 atoms in group wall
Neighbor list info ...
  update every 1 steps, delay 0 steps, check yes
  max neighbors/atom: 2000, page size: 100000
  master list distance cutoff = 3.5
  ghost atom cutoff = 3.5
  binsize = 1.75, bins = 10 10 14
  1 neighbor lists, perpetual/occasional/extra = 1 0 0
  (1) pair lj/cut, perpetual
      attributes: half, newton on
      pair build: half/bin/atomonly/newton
      stencil: half/bin/3d/newton
      bin: standard
Per MPI rank memory allocation (min/avg/max) = 4.241 | 4.242 | 4.243 Mbytes
Step Temp E_pair E_mol TotEng Press 
       0   0.68076616 1.6636506e+10            0 1.6636506e+10 4.072479e+10 
     854   0.68076616   -4.6213646            0    -3.600487  0.092549258 
Loop time of 1.13866 on 8 procs for 854 steps with 3760 atoms

91.8% CPU use with 8 MPI tasks x no OpenMP threads

Minimization stats:
  Stopping criterion = linesearch alpha is zero
  Energy initial, next-to-last, final = 
         16636506182.3     -4.62136463958     -4.62136463958
  Force two-norm initial, final = 1.19362e+16 9.20629
  Force max component initial, final = 6.93345e+15 3.19225
  Final line search alpha, max atom move = 3.20929e-07 1.02449e-06
  Iterations, force evaluations = 854 1682

MPI task timing breakdown:
Section |  min time  |  avg time  |  max time  |%varavg| %total
---------------------------------------------------------------
Pair    | 0.46175    | 0.63122    | 0.78689    |  13.6 | 55.44
Neigh   | 0.085787   | 0.10694    | 0.14047    |   6.0 |  9.39
Comm    | 0.14142    | 0.3315     | 0.52731    |  22.1 | 29.11
Output  | 0          | 0          | 0          |   0.0 |  0.00
Modify  | 0.0022142  | 0.0027734  | 0.0034427  |   0.7 |  0.24
Other   |            | 0.06623    |            |       |  5.82

Nlocal:    470 ave 576 max 368 min
Histogram: 1 0 2 0 1 1 1 1 0 1
Nghost:    1561.5 ave 1640 max 1493 min
Histogram: 2 0 1 1 1 0 1 0 0 2
Neighs:    23042.4 ave 28925 max 16770 min
Histogram: 1 1 0 1 1 1 0 1 0 2

Total # of neighbors = 184339
Ave neighs/atom = 49.0263
Neighbor list builds = 64
Dangerous builds = 0
Per MPI rank memory allocation (min/avg/max) = 3.462 | 3.464 | 3.465 Mbytes
Step Temp c_wall_temp c_fluid_temp KinEng PotEng TotEng 
       0   0.68076616            0            1    1.0208777   -4.6213646    -3.600487 
      10   0.66401297            0   0.97539069   0.99575456   -4.5954358   -3.5996813 
      20   0.61510933            0   0.90355451   0.92241861   -4.5203218   -3.5979032 
      30   0.53949241            0   0.79247829   0.80902339   -4.4037767   -3.5947533 
      40   0.44969108            0   0.66056615   0.67435722   -4.2634841   -3.5891269 
      50   0.36562758            0   0.53708249   0.54829551   -4.1292953   -3.5809997 
      60   0.30705702            0   0.45104624   0.46046303    -4.033483     -3.57302 
      70   0.28322875            0   0.41604411   0.42473014   -3.9908775   -3.5661474 
      80   0.28944542            0   0.42517598   0.43405266   -3.9931103   -3.5590576 
      90   0.31216582            0   0.45855073   0.46812419   -4.0186916   -3.5505674 
     100   0.33791188            0   0.49636997   0.50673301   -4.0474205   -3.5406875 
     110   0.35857968            0   0.52672959   0.53772647   -4.0675525    -3.529826 
     120   0.37191908            0   0.54632428   0.55773025   -4.0757228   -3.5179925 
     130   0.37962255            0   0.55764016   0.56928238   -4.0752345   -3.5059522 
     140   0.38492193            0    0.5654246   0.57722934   -4.0704709   -3.4932415 
     150   0.39038853            0   0.57345466   0.58542705   -4.0655187   -3.4800917 
     160   0.39694536            0   0.58308621   0.59525969    -4.061843   -3.4665833 
     170   0.40445354            0   0.59411522   0.60651896   -4.0589053   -3.4523863 
     180     0.412641            0   0.60614206   0.61879689   -4.0567471   -3.4379503 
     190   0.42120821            0   0.61872671   0.63164428   -4.0549154   -3.4232711 
     200   0.42948587            0   0.63088604   0.64405747   -4.0521572   -3.4080997 
     210   0.43643772            0   0.64109784   0.65448247   -4.0470958   -3.3926133 
     220    0.4413672            0   0.64833892   0.66187472   -4.0389011   -3.3770263 
     230   0.44453861            0   0.65299751   0.66663057   -4.0280414   -3.3614109 
     240   0.44681264            0   0.65633792   0.67004071   -4.0156421   -3.3456014 
     250   0.44937608            0   0.66010344   0.67388485    -4.003408   -3.3295232 
     260    0.4533944            0   0.66600608   0.67991072   -3.9931533   -3.3132426 
     270   0.45894966            0   0.67416638    0.6882414   -3.9850456   -3.2968042 
     280   0.46502521            0   0.68309096    0.6973523   -3.9774702   -3.2801179 
     290   0.47067973            0   0.69139707   0.70583183   -3.9691498    -3.263318 
     300   0.47555836            0   0.69856345   0.71314782   -3.9593108    -3.246163 
     310    0.4798147            0   0.70481574   0.71953064   -3.9486024   -3.2290718 
     320   0.48384985            0    0.7107431   0.72558176   -3.9375021   -3.2119203 
     330   0.48784272            0   0.71660836   0.73156946   -3.9261851   -3.1946156 
     340   0.49201613            0   0.72273881   0.73782791   -3.9149179     -3.17709 
     350   0.49666198            0   0.72956326   0.74479483   -3.9044054   -3.1596105 
     360   0.50143342            0   0.73657218   0.75195009   -3.8938993   -3.1419492 
     370   0.50568472            0   0.74281707   0.75832535   -3.8827146   -3.1243893 
     380   0.50949074            0   0.74840785   0.76403286   -3.8706634   -3.1066305 
     390   0.51338626            0   0.75413011   0.76987458   -3.8589079   -3.0890333 
     400    0.5176256            0   0.76035742   0.77623191   -3.8472915   -3.0710596 
     410   0.52219641            0   0.76707163   0.78308629   -3.8364285   -3.0533422 
     420   0.52702574            0   0.77416559   0.79032835   -3.8256425   -3.0353141 
     430   0.53183386            0    0.7812284   0.79753862   -3.8147765   -3.0172379 
     440   0.53637771            0   0.78790301   0.80435259   -3.8034746    -2.999122 
     450   0.54084871            0   0.79447062   0.81105731   -3.7921147   -2.9810574 
     460    0.5458676            0   0.80184303   0.81858364   -3.7815589   -2.9629753 
     470   0.55190652            0   0.81071379    0.8276396   -3.7723782   -2.9447386 
     480   0.55860158            0    0.8205484   0.83767953   -3.7642925   -2.9266129 
     490   0.56515482            0   0.83017466   0.84750677   -3.7560726   -2.9085659 
     500    0.5712341            0   0.83910473   0.85662327   -3.7470712   -2.8904479 
     510   0.57699115            0   0.84756145   0.86525655   -3.7376419   -2.8723854 
     520   0.58249205            0    0.8556419    0.8735057   -3.7280434   -2.8545377 
     530   0.58753016            0   0.86304255   0.88106086   -3.7179552   -2.8368943 
     540   0.59192597            0   0.86949969   0.88765281   -3.7068206   -2.8191677 
     550   0.59584317            0   0.87525381   0.89352706   -3.6952152   -2.8016882 
     560   0.59991428            0   0.88123399    0.8996321   -3.6839501    -2.784318 
     570   0.60471185            0   0.88828129   0.90682653    -3.673913   -2.7670864 
     580   0.60992577            0    0.8959402   0.91464533   -3.6644953     -2.74985 
     590   0.61433874            0   0.90242256   0.92126303   -3.6538844   -2.7326213 
     600   0.61703579            0   0.90638434   0.92530752   -3.6410945    -2.715787 
     610    0.6184904            0   0.90852107   0.92748886   -3.6265914   -2.6991025 
     620   0.62014046            0    0.9109449    0.9299633   -3.6124849   -2.6825216 
     630   0.62272477            0   0.91474108   0.93383873   -3.6000887     -2.66625 
     640   0.62564353            0   0.91902854    0.9382157   -3.5881334   -2.6499177 
     650   0.62862695            0   0.92341099   0.94268965   -3.5765382   -2.6338486 
     660    0.6317374            0   0.92798002   0.94735408   -3.5652022   -2.6178481 
     670   0.63473927            0   0.93238957   0.95185568   -3.5540426   -2.6021869 
     680   0.63719648            0   0.93599904   0.95554051   -3.5423074   -2.5867669 
     690   0.63879409            0   0.93834583   0.95793629   -3.5291428   -2.5712065 
     700    0.6399565            0   0.94005334   0.95967945   -3.5157023   -2.5560228 
     710   0.64189797            0   0.94290523   0.96259089   -3.5035358   -2.5409449 
     720   0.64519654            0   0.94775061   0.96753742   -3.4936102   -2.5260728 
     730   0.64909057            0   0.95347068   0.97337691   -3.4846744   -2.5112975 
     740   0.65270355            0    0.9587779   0.97879493     -3.47541   -2.4966151 
     750   0.65599158            0    0.9636078   0.98372567   -3.4660068   -2.4822811 
     760   0.65927597            0   0.96843235   0.98865095   -3.4567264   -2.4680754 
     770   0.66257039            0   0.97327162   0.99359126   -3.4478136   -2.4542223 
     780   0.66552757            0   0.97761553   0.99802586   -3.4388665   -2.4408406 
     790   0.66779533            0   0.98094672    1.0014266   -3.4289544   -2.4275278 
     800   0.66954487            0   0.98351668    1.0040502   -3.4187509   -2.4147007 
     810   0.67130416            0   0.98610095    1.0066884   -3.4089669   -2.4022785 
     820   0.67330426            0   0.98903896    1.0096878   -3.3996491   -2.3899613 
     830   0.67517253            0   0.99178332    1.0124894   -3.3908128   -2.3783233 
     840   0.67604997            0   0.99307223    1.0138053   -3.3806797   -2.3668744 
     850   0.67587121            0   0.99280965    1.0135372   -3.3691728   -2.3556356 
     860   0.67584939            0   0.99277759    1.0135045   -3.3582982   -2.3447937 
     870   0.67702762            0   0.99450834    1.0152713   -3.3493426   -2.3340713 
     880   0.67911697            0   0.99757745    1.0184045   -3.3422498   -2.3238453 
     890   0.68148142            0    1.0010507    1.0219503   -3.3360023    -2.314052 
     900   0.68365642            0    1.0042456    1.0252119    -3.329556   -2.3043441 
     910    0.6851716            0    1.0064713    1.0274841   -3.3223257   -2.2948416 
     920   0.68592274            0    1.0075747    1.0286105   -3.3143694   -2.2857589 
     930   0.68608921            0    1.0078192    1.0288601   -3.3058754   -2.2770153 
     940   0.68577619            0    1.0073594    1.0283907   -3.2973012   -2.2689105 
     950   0.68531156            0    1.0066769    1.0276939   -3.2886195   -2.2609256 
     960   0.68536353            0    1.0067532    1.0277719   -3.2808821   -2.2531102 
     970   0.68593705            0    1.0075957    1.0286319    -3.274288   -2.2456561 
     980   0.68615541            0    1.0079165    1.0289594   -3.2674416   -2.2384822 
     990   0.68579139            0    1.0073817    1.0284135   -3.2599263   -2.2315128 
    1000   0.68579748            0    1.0073907    1.0284226   -3.2531315   -2.2247089 
    1010   0.68635149            0    1.0082045    1.0292534    -3.247692   -2.2184386 
    1020   0.68655618            0    1.0085052    1.0295604   -3.2418388   -2.2122784 
    1030   0.68593511            0    1.0075928     1.028629   -3.2350019   -2.2063729 
    1040   0.68488303            0    1.0060474    1.0270513   -3.2275376   -2.2004863 
    1050   0.68364739            0    1.0042323    1.0251984   -3.2202674    -2.195069 
    1060   0.68206114            0    1.0019022    1.0228196   -3.2124257   -2.1896061 
    1070   0.68007643            0   0.99898683    1.0198433   -3.2040188   -2.1841754 
    1080   0.67787915            0   0.99575917    1.0165483    -3.195367   -2.1788187 
    1090   0.67555933            0   0.99235151    1.0130695   -3.1865151   -2.1734456 
    1100    0.6732414            0   0.98894663    1.0095935   -3.1776223   -2.1680287 
    1110   0.67118697            0   0.98592881    1.0065127   -3.1691007    -2.162588 
    1120   0.66915753            0    0.9829477    1.0034693   -3.1602766   -2.1568072 
    1130   0.66656351            0   0.97913725   0.99957935   -3.1502635   -2.1506841 
    1140   0.66371604            0   0.97495451   0.99530928   -3.1395405   -2.1442312 
    1150   0.66184711            0   0.97220917   0.99250663   -3.1299404   -2.1374338 
    1160    0.6616855            0   0.97197178   0.99226428   -3.1224878   -2.1302235 
    1170   0.66297455            0   0.97386531   0.99419733   -3.1169957   -2.1227983 
    1180   0.66523617            0   0.97718748   0.99758886   -3.1122959    -2.114707 
    1190   0.66815704            0   0.98147805     1.001969   -3.1085193   -2.1065503 
    1200   0.67066795            0    0.9851664    1.0057344   -3.1037166   -2.0979822 
    1210   0.67188417            0   0.98695295    1.0075582    -3.096914   -2.0893557 
    1220   0.67240614            0   0.98771969     1.008341   -3.0890705   -2.0807295 
    1230   0.67318938            0   0.98887021    1.0095155   -3.0814479   -2.0719324 
    1240    0.6747471            0    0.9911584    1.0118515   -3.0749826   -2.0631311 
    1250   0.67728268            0     0.994883    1.0156538   -3.0699839   -2.0543301 
    1260   0.68046228            0   0.99955362     1.020422    -3.066227    -2.045805 
    1270   0.68354715            0    1.0040851     1.025048    -3.062379    -2.037331 
    1280   0.68602391            0    1.0077233    1.0287622   -3.0579415   -2.0291793 
    1290   0.68788179            0    1.0104524    1.0315483   -3.0530648   -2.0215166 
    1300   0.68908568            0    1.0122208    1.0333536   -3.0474085   -2.0140549 
    1310   0.68894166            0    1.0120093    1.0331376   -3.0399493   -2.0068117 
    1320   0.68691519            0    1.0090325    1.0300987   -3.0299872   -1.9998885 
    1330    0.6835843            0    1.0041397    1.0251037   -3.0187831   -1.9936794 
    1340   0.68022642            0   0.99920716    1.0200683   -3.0074166   -1.9873483 
    1350   0.67790564            0   0.99579808     1.016588   -2.9979118   -1.9813238 
    1360   0.67706081            0   0.99455709    1.0153211   -2.9905682   -1.9752471 
    1370   0.67752359            0   0.99523689    1.0160151   -2.9849533   -1.9689382 
    1380     0.678519            0   0.99669907    1.0175078   -2.9802918    -1.962784 
    1390    0.6791745            0   0.99766196    1.0184908   -2.9750233   -1.9565325 
    1400   0.67949799            0   0.99813715    1.0189759    -2.969331   -1.9503551 
    1410   0.67975807            0   0.99851918    1.0193659   -2.9633865   -1.9440206 
    1420   0.67960942            0   0.99830082     1.019143   -2.9571424   -1.9379994 
    1430   0.67909588            0   0.99754647    1.0183729   -2.9502017   -1.9318288 
    1440    0.6791479            0   0.99762289    1.0184509   -2.9441159    -1.925665 
    1450   0.68063172            0   0.99980251     1.020676   -2.9402796   -1.9196035 
    1460   0.68281034            0    1.0030028    1.0239431   -2.9376528   -1.9137097 
    1470   0.68388707            0    1.0045844    1.0255578   -2.9334295   -1.9078717 
    1480   0.68305618            0    1.0033639    1.0243118   -2.9263184   -1.9020066 
    1490    0.6806759            0   0.99986741    1.0207423   -2.9172371   -1.8964948 
    1500   0.67788341            0   0.99576542    1.0165547   -2.9075182   -1.8909635 
    1510   0.67634015            0   0.99349848    1.0142404   -2.8996325   -1.8853921 
    1520   0.67703262            0   0.99451568    1.0152788    -2.894965   -1.8796862 
    1530   0.67953477            0   0.99819116    1.0190311   -2.8930119   -1.8739809 
    1540   0.68276658            0    1.0029385    1.0238775   -2.8922077   -1.8683302 
    1550     0.685792            0    1.0073826    1.0284144   -2.8912091   -1.8627947 
    1560    0.6877469            0    1.0102542     1.031346     -2.88895    -1.857604 
    1570   0.68828861            0      1.01105    1.0321583   -2.8846214   -1.8524631 
    1580   0.68797446            0    1.0105885    1.0316872   -2.8792756   -1.8475883 
    1590   0.68755021            0    1.0099653     1.031051   -2.8739762   -1.8429252 
    1600   0.68721927            0    1.0094792    1.0305547   -2.8692052   -1.8386504 
    1610   0.68699985            0    1.0091569    1.0302257   -2.8647262   -1.8345005 
    1620   0.68701073            0    1.0091729     1.030242   -2.8607421   -1.8305001 
    1630   0.68687864            0    1.0089788    1.0300439   -2.8569705   -1.8269265 
    1640   0.68590625            0    1.0075504    1.0285857   -2.8521628   -1.8235771 
    1650   0.68401252            0    1.0047687    1.0257459   -2.8459784   -1.8202325 
    1660   0.68209086            0    1.0019459    1.0228642   -2.8399683   -1.8171041 
    1670   0.68104759            0    1.0004134    1.0212997   -2.8352559   -1.8139562 
    1680   0.68097806            0    1.0003113    1.0211954   -2.8321475   -1.8109521 
    1690   0.68139891            0    1.0009295    1.0218265    -2.829542   -1.8077155 
    1700   0.68177949            0    1.0014885    1.0223972   -2.8270316   -1.8046343 
    1710   0.68191024            0    1.0016806    1.0225933   -2.8241479   -1.8015546 
    1720   0.68199988            0    1.0018123    1.0227277   -2.8211704   -1.7984427 
    1730   0.68211855            0    1.0019866    1.0229057   -2.8183377    -1.795432 
    1740   0.68186202            0    1.0016097     1.022521   -2.8150107   -1.7924897 
    1750   0.68102558            0    1.0003811    1.0212667    -2.810815   -1.7895483 
    1760   0.67965362            0   0.99836576    1.0192093    -2.805847   -1.7866377 
    1770    0.6777976            0   0.99563938     1.016426   -2.7999534   -1.7835274 
    1780   0.67564447            0   0.99247658    1.0131972   -2.7937961    -1.780599 
    1790    0.6733194            0   0.98906121    1.0097105   -2.7872978   -1.7775873 
    1800   0.67081158            0   0.98537738    1.0059498   -2.7801857    -1.774236 
    1810    0.6677935            0   0.98094402    1.0014238   -2.7721727   -1.7707489 
    1820    0.6644895            0   0.97609068   0.99646916   -2.7630161   -1.7665469 
    1830   0.66282635            0   0.97364762    0.9939751   -2.7560652   -1.7620901 
    1840   0.66463008            0   0.97629717   0.99667997    -2.753727    -1.757047 
    1850   0.66898789            0   0.98269851     1.003215   -2.7549831   -1.7517682 
    1860   0.67367301            0   0.98958064    1.0102408   -2.7563829   -1.7461422 
    1870   0.67764701            0   0.99541818    1.0162002   -2.7566931   -1.7404929 
    1880   0.68129584            0    1.0007781     1.021672   -2.7565394   -1.7348674 
    1890   0.68508749            0    1.0063477    1.0273579   -2.7565494   -1.7291915 
    1900   0.68837268            0    1.0111735    1.0322844   -2.7557878   -1.7235034 
    1910     0.690438            0    1.0142073    1.0353816    -2.753598   -1.7182165 
    1920   0.69153247            0     1.015815    1.0370228   -2.7501622   -1.7131393 
    1930   0.69158241            0    1.0158884    1.0370977   -2.7457248   -1.7086271 
    1940   0.69015525            0    1.0137919    1.0349575   -2.7392348   -1.7042772 
    1950   0.68751047            0    1.0099069    1.0309914   -2.7312476   -1.7002562 
    1960   0.68415724            0    1.0049813    1.0259629   -2.7224396   -1.6964767 
    1970   0.68179955            0     1.001518    1.0224273    -2.715369   -1.6929417 
    1980   0.68269147            0    1.0028281    1.0237649   -2.7130548     -1.68929 
    1990   0.68678614            0     1.008843    1.0299052   -2.7157439   -1.6858386 
    2000   0.69186601            0    1.0163049     1.037523   -2.7199247   -1.6824017 
    2010   0.69583186            0    1.0221305    1.0434702   -2.7228676   -1.6793974 
    2020   0.69792141            0    1.0251999    1.0466037   -2.7235654   -1.6769617 
    2030   0.69811677            0    1.0254869    1.0468967   -2.7216587    -1.674762 
    2040   0.69701206            0    1.0238641      1.04524   -2.7183872   -1.6731472 
    2050    0.6954906            0    1.0216292    1.0429584   -2.7151158   -1.6721574 
    2060   0.69343165            0    1.0186048    1.0398708   -2.7114624   -1.6715915 
    2070   0.69059509            0     1.014438    1.0356171   -2.7071265   -1.6715094 
    2080   0.68737892            0    1.0097137    1.0307942   -2.7024981   -1.6717039 
    2090   0.68411384            0    1.0049175    1.0258978   -2.6981352   -1.6722374 
    2100   0.68056922            0   0.99971071    1.0205823   -2.6933524   -1.6727701 
    2110   0.67646841            0    0.9936869    1.0144328   -2.6874824   -1.6730496 
    2120   0.67237239            0   0.98767011    1.0082903   -2.6816241   -1.6733338 
    2130   0.66904641            0   0.98278446    1.0033027    -2.676756   -1.6734533 
    2140   0.66670396            0   0.97934357   0.99978997   -2.6730763   -1.6732863 
    2150    0.6653416            0   0.97734235   0.99774697   -2.6703121   -1.6725651 
    2160   0.66518435            0   0.97711136   0.99751116   -2.6690562   -1.6715451 
    2170    0.6663458            0   0.97881745   0.99925287   -2.6692337   -1.6699809 
    2180   0.66878195            0     0.982396    1.0029061    -2.670926   -1.6680199 
    2190   0.67245434            0   0.98779049    1.0084132   -2.6740244   -1.6656112 
    2200   0.67693942            0   0.99437877    1.0151391   -2.6781876   -1.6630486 
    2210   0.68123638            0    1.0006907    1.0215828   -2.6816003   -1.6600175 
    2220   0.68440448            0    1.0053444    1.0263337   -2.6836611   -1.6573275 
    2230   0.68604579            0    1.0077554     1.028795   -2.6834743   -1.6546793 
    2240   0.68622385            0     1.008017     1.029062   -2.6813766   -1.6523146 
    2250   0.68538805            0    1.0067892    1.0278087   -2.6777093   -1.6499006 
    2260   0.68420781            0    1.0050556    1.0260388   -2.6737664   -1.6477276 
    2270   0.68330086            0    1.0037233    1.0246787   -2.6702272   -1.6455485 
    2280   0.68283194            0    1.0030345    1.0239755   -2.6674054   -1.6434299 
    2290   0.68257093            0    1.0026511    1.0235841    -2.665065   -1.6414809 
    2300   0.68267003            0    1.0027966    1.0237327   -2.6632697    -1.639537 
    2310   0.68361608            0    1.0041863    1.0251514   -2.6629268   -1.6377754 
    2320   0.68524493            0     1.006579     1.027594   -2.6636295   -1.6360354 
    2330    0.6868206            0    1.0088936    1.0299569    -2.664329   -1.6343721 
    2340   0.68755897            0    1.0099782    1.0310642   -2.6639657   -1.6329015 
    2350   0.68717721            0    1.0094174    1.0304917   -2.6622521   -1.6317605 
    2360   0.68591439            0    1.0075624     1.028598    -2.659143    -1.630545 
    2370   0.68413532            0    1.0049491      1.02593    -2.655687    -1.629757 
    2380   0.68249934            0    1.0025459    1.0234767   -2.6526166   -1.6291398 
    2390   0.68169832            0    1.0013693    1.0222755   -2.6507481   -1.6284726 
    2400   0.68195125            0    1.0017408    1.0226548   -2.6504769   -1.6278221 
    2410    0.6829423            0    1.0031966     1.024141   -2.6513218   -1.6271808 
    2420   0.68429008            0    1.0051764    1.0261621   -2.6526789   -1.6265168 
    2430   0.68545927            0    1.0068939    1.0279155   -2.6541457   -1.6262303 
    2440   0.68549471            0    1.0069459    1.0279686   -2.6537497   -1.6257811 
    2450   0.68415609            0    1.0049796    1.0259612   -2.6513967   -1.6254355 
    2460   0.68186952            0    1.0016208    1.0225323   -2.6480859   -1.6255537 
    2470   0.67948034            0   0.99811121    1.0189494    -2.644298   -1.6253485 
    2480   0.67797669            0   0.99590246    1.0166946   -2.6418068   -1.6251123 
    2490   0.67767312            0   0.99545653    1.0162393   -2.6412835   -1.6250442 
    2500   0.67767631            0   0.99546121    1.0162441   -2.6412462   -1.6250021 
    2510   0.67649774            0   0.99372997    1.0144767   -2.6390103   -1.6245335 
    2520   0.67348295            0   0.98930145    1.0099557   -2.6339648    -1.624009 
    2530   0.66974807            0   0.98381516    1.0043549   -2.6277001   -1.6233452 
    2540   0.66704362            0    0.9798425    1.0002993    -2.622648   -1.6223487 
    2550    0.6662231            0   0.97863722   0.99906887   -2.6201442   -1.6210753 
    2560   0.66745861            0    0.9804521    1.0009216   -2.6200592   -1.6191375 
    2570   0.67073642            0   0.98526698     1.005837   -2.6228813   -1.6170442 
    2580   0.67488839            0   0.99136595    1.0120634   -2.6264635   -1.6144002 
    2590   0.67872502            0    0.9970017    1.0178168   -2.6296427   -1.6118259 
    2600   0.68194729            0     1.001735    1.0226489   -2.6317142   -1.6090653 
    2610   0.68454734            0    1.0055543    1.0265479   -2.6326269   -1.6060789 
    2620    0.6862773            0    1.0080955    1.0291422   -2.6326882   -1.6035461 
    2630   0.68688798            0    1.0089925    1.0300579   -2.6310067   -1.6009488 
    2640   0.68638893            0    1.0082595    1.0293096   -2.6279256    -1.598616 
    2650   0.68495806            0    1.0061576    1.0271638   -2.6236697   -1.5965059 
    2660   0.68266469            0    1.0027888    1.0237247   -2.6181232   -1.5943986 
    2670   0.67992298            0   0.99876142    1.0196132   -2.6121366   -1.5925234 
    2680   0.67894737            0   0.99732832    1.0181502   -2.6087811   -1.5906309 
    2690   0.67899068            0   0.99739194    1.0182152   -2.6067475   -1.5885323 
    2700   0.67916126            0   0.99764251    1.0184709   -2.6049612   -1.5864902 
    2710   0.67999461            0   0.99886664    1.0197206   -2.6042854   -1.5845647 
    2720   0.68114401            0     1.000555    1.0214443   -2.6038398   -1.5823955 
    2730   0.68203803            0    1.0018683     1.022785   -2.6028478   -1.5800628 
    2740   0.68240184            0    1.0024027    1.0233305   -2.6011072   -1.5777766 
    2750   0.68252675            0    1.0025862    1.0235178   -2.5991229   -1.5756051 
    2760   0.68340788            0    1.0038805    1.0248392   -2.5985004   -1.5736612 
    2770   0.68433476            0     1.005242    1.0262291   -2.5979254   -1.5716963 
    2780   0.68423145            0    1.0050903    1.0260742   -2.5959055   -1.5698313 
    2790    0.6833737            0    1.0038303    1.0247879   -2.5929726   -1.5681846 
    2800   0.68232376            0     1.002288    1.0232134   -2.5896384    -1.566425 
    2810   0.68153534            0    1.0011299    1.0220311   -2.5868123   -1.5647812 
    2820   0.68166614            0     1.001322    1.0222273   -2.5852967   -1.5630694 
    2830     0.683173            0    1.0035355     1.024487   -2.5860228   -1.5615359 
    2840   0.68586496            0    1.0074898    1.0285238   -2.5887026   -1.5601787 
    2850   0.68901687            0    1.0121197    1.0332504   -2.5920582   -1.5588078 
    2860   0.69142624            0    1.0156589    1.0368635     -2.59444   -1.5575765 
    2870   0.69267925            0    1.0174995    1.0387425   -2.5953719   -1.5566294 
    2880   0.69386979            0    1.0192484    1.0405279   -2.5968576   -1.5563297 
    2890   0.69570606            0    1.0219457    1.0432815   -2.5995236   -1.5562421 
    2900   0.69739999            0     1.024434    1.0458218    -2.602449   -1.5566272 
    2910   0.69758404            0    1.0247043    1.0460978   -2.6034806   -1.5573829 
    2920   0.69610134            0    1.0225264    1.0438743   -2.6024087   -1.5585344 
    2930    0.6940754            0    1.0195504    1.0408362   -2.6013203   -1.5604841 
    2940   0.69244589            0    1.0171567    1.0383926   -2.6013406    -1.562948 
    2950   0.69097355            0     1.014994    1.0361847   -2.6018053   -1.5656206 
    2960   0.68854315            0    1.0114239      1.03254   -2.6013987   -1.5688587 
    2970   0.68449539            0     1.005478      1.02647   -2.5985132   -1.5720432 
    2980   0.67955721            0   0.99822414    1.0190647   -2.5943263   -1.5752616 
    2990   0.67509773            0   0.99167345    1.0123773   -2.5910126   -1.5786353 
    3000    0.6721867            0   0.98739734    1.0080119   -2.5897503   -1.5817384 
    3010   0.67123228            0   0.98599536    1.0065806    -2.590954   -1.5843733 
    3020   0.67133157            0   0.98614121    1.0067295   -2.5934836   -1.5867541 
    3030   0.67098277            0   0.98562885    1.0062065   -2.5951718   -1.5889653 
    3040   0.66918945            0   0.98299458    1.0035172   -2.5942508   -1.5907336 
    3050   0.66577317            0    0.9779763   0.99839416   -2.5905705   -1.5921764 
    3060   0.66237028            0   0.97297768   0.99329117   -2.5865213   -1.5932301 
    3070   0.66121855            0   0.97128587   0.99156405    -2.585184     -1.59362 
    3080   0.66241293            0   0.97304033   0.99335514   -2.5867507   -1.5933955 
    3090   0.66490084            0    0.9766949     0.997086   -2.5900775   -1.5929915 
    3100   0.66814855            0   0.98146557    1.0019563   -2.5939576   -1.5920014 
    3110   0.67157633            0   0.98650075    1.0070966   -2.5979013   -1.5908047 
    3120    0.6741653            0   0.99030377     1.010979   -2.6000206   -1.5890416 
    3130   0.67494934            0   0.99145548    1.0121547    -2.599454   -1.5872992 
    3140   0.67369792            0   0.98961723    1.0102781   -2.5955541   -1.5852759 
    3150   0.67148765            0   0.98637048    1.0069636   -2.5899072   -1.5829436 
    3160   0.67029363            0   0.98461655     1.005173   -2.5855766   -1.5804036 
    3170   0.67085628            0   0.98544304    1.0060168   -2.5835677   -1.5775509 
    3180   0.67231479            0    0.9875855     1.008204   -2.5825696   -1.5743657 
    3190   0.67370553            0    0.9896284    1.0102895   -2.5813756   -1.5710861 
    3200   0.67459807            0   0.99093949     1.011628   -2.5791596   -1.5675316 
    3210   0.67567867            0   0.99252682    1.0132485    -2.577197   -1.5639486 
    3220   0.67811241            0   0.99610182    1.0168981   -2.5770909   -1.5601928 
    3230   0.68140632            0    1.0009404    1.0218376   -2.5781628   -1.5563252 
    3240   0.68423578            0    1.0050966    1.0260807   -2.5783681   -1.5522874 
    3250   0.68603524            0    1.0077399    1.0287792   -2.5773628   -1.5485837 
    3260   0.68689783            0     1.009007    1.0300727   -2.5751577    -1.545085 
    3270   0.68717515            0    1.0094144    1.0304886   -2.5720551   -1.5415665 
    3280   0.68736981            0    1.0097003    1.0307805   -2.5692886   -1.5385081 
    3290   0.68769892            0    1.0101838     1.031274   -2.5668651   -1.5355911 
    3300   0.68800068            0     1.010627    1.0317266   -2.5643991   -1.5326726 
    3310   0.68841078            0    1.0112294    1.0323415   -2.5627302   -1.5303886 
    3320   0.68935846            0    1.0126215    1.0337627   -2.5617698   -1.5280071 
    3330   0.69129621            0    1.0154679    1.0366685   -2.5626882   -1.5260197 
    3340   0.69374757            0    1.0190688    1.0403446   -2.5647181   -1.5243735 
    3350   0.69522895            0    1.0212449    1.0425661   -2.5655445   -1.5229784 
    3360     0.695021            0    1.0209394    1.0422542   -2.5644085   -1.5221542 
    3370   0.69380734            0    1.0191566    1.0404342   -2.5622696   -1.5218354 
    3380   0.69250327            0     1.017241    1.0384786   -2.5602899   -1.5218113 
    3390   0.69150322            0     1.015772     1.036979   -2.5591386   -1.5221596 
    3400   0.69077869            0    1.0147077    1.0358925   -2.5586691   -1.5227767 
    3410   0.69015689            0    1.0137944      1.03496   -2.5585958   -1.5236358 
    3420    0.6896826            0    1.0130977    1.0342488   -2.5589756   -1.5247268 
    3430   0.69000631            0    1.0135732    1.0347342   -2.5609556   -1.5262214 
    3440   0.69145824            0     1.015706    1.0369115   -2.5649712   -1.5280596 
    3450   0.69334107            0    1.0184717     1.039735   -2.5698439   -1.5301089 
    3460   0.69399109            0    1.0194265    1.0407098   -2.5734721   -1.5327623 
    3470   0.69217743            0    1.0167624      1.03799   -2.5737281   -1.5357381 
    3480   0.68835994            0    1.0111548    1.0322653   -2.5710352   -1.5387699 
    3490   0.68442327            0     1.005372    1.0263619   -2.5683522   -1.5419903 
    3500   0.68200354            0    1.0018176    1.0227332   -2.5682298   -1.5454966 
    3510   0.68065623            0   0.99983852    1.0207128   -2.5698097   -1.5490969 
    3520   0.67888822            0   0.99724144    1.0180615   -2.5706064   -1.5525449 
    3530   0.67637064            0   0.99354327    1.0142861   -2.5702582   -1.5559721 
    3540   0.67356106            0   0.98941618    1.0100729   -2.5693315   -1.5592586 
    3550   0.67062236            0   0.98509944     1.005666   -2.5679339   -1.5622679 
    3560   0.66847569            0   0.98194612    1.0024469   -2.5673878   -1.5649409 
    3570   0.66796426            0   0.98119487    1.0016799   -2.5689368   -1.5672569 
    3580    0.6685497            0   0.98205484    1.0025578   -2.5715615   -1.5690037 
    3590   0.66940143            0   0.98330596    1.0038351   -2.5742656   -1.5704306 
    3600   0.66994312            0   0.98410167    1.0046474   -2.5764252   -1.5717778 
    3610    0.6699178            0   0.98406448    1.0046094    -2.577327   -1.5727175 
    3620   0.66900327            0    0.9827211     1.003238   -2.5763845   -1.5731465 
    3630   0.66718954            0   0.98005685    1.0005181   -2.5737838   -1.5732656 
    3640   0.66519497            0   0.97712697   0.99752709   -2.5708216   -1.5732945 
    3650   0.66335438            0   0.97442325   0.99476693   -2.5673949    -1.572628 
    3660   0.66173721            0   0.97204774   0.99234182   -2.5639791   -1.5716373 
    3670   0.66101318            0   0.97098419   0.99125607   -2.5612944   -1.5700384 
    3680   0.66225639            0   0.97281039   0.99312039   -2.5608901   -1.5677697 
    3690   0.66549531            0   0.97756813   0.99797747   -2.5630745    -1.565097 
    3700   0.66941073            0   0.98331963     1.003849    -2.565563   -1.5617139 
    3710    0.6724024            0   0.98771419    1.0083354   -2.5664588   -1.5581235 
    3720   0.67383651            0    0.9898208    1.0104859    -2.565055   -1.5545691 
    3730   0.67457674            0   0.99090815     1.011596   -2.5622271   -1.5506311 
    3740    0.6752404            0   0.99188303    1.0125912   -2.5592542   -1.5466629 
    3750   0.67594114            0   0.99291237    1.0136421   -2.5559276   -1.5422855 
    3760   0.67740367            0   0.99506073    1.0158353   -2.5536442   -1.5378089 
    3770   0.67956741            0   0.99823911      1.01908   -2.5524897   -1.5334097 
    3780   0.68203551            0    1.0018646    1.0227812   -2.5517644   -1.5289832 
    3790   0.68528897            0    1.0066437    1.0276601   -2.5523195   -1.5246594 
    3800   0.68937133            0    1.0126404     1.033782   -2.5541343   -1.5203523 
    3810   0.69408689            0    1.0195673    1.0408534   -2.5572661   -1.5164127 
    3820   0.69897211            0    1.0267433    1.0481793    -2.561114   -1.5129347 
    3830   0.70312907            0    1.0328496    1.0544131   -2.5644576   -1.5100445 
    3840   0.70606881            0    1.0371679    1.0588215   -2.5665989   -1.5077774 
    3850   0.70772886            0    1.0396064    1.0613109   -2.5678497   -1.5065387 
    3860   0.70814951            0    1.0402243    1.0619418   -2.5680306   -1.5060888 
    3870   0.70811292            0    1.0401706    1.0618869   -2.5683086   -1.5064217 
    3880   0.70819514            0    1.0402913    1.0620102   -2.5695761    -1.507566 
    3890   0.70780038            0    1.0397115    1.0614182   -2.5710235   -1.5096053 
    3900   0.70660861            0    1.0379608     1.059631    -2.572091     -1.51246 
    3910   0.70478753            0    1.0352858    1.0569001   -2.5729909   -1.5160908 
    3920   0.70209323            0     1.031328    1.0528598   -2.5733346   -1.5204749 
    3930   0.69823398            0    1.0256591    1.0470724   -2.5724528   -1.5253804 
    3940   0.69356413            0    1.0187994    1.0400695    -2.570931   -1.5308615 
    3950   0.68865337            0    1.0115858    1.0327053   -2.5692497   -1.5365444 
    3960   0.68388355            0    1.0045792    1.0255525   -2.5676813   -1.5421288 
    3970   0.67957112            0   0.99824456    1.0190856   -2.5665725    -1.547487 
    3980   0.67592226            0   0.99288463    1.0136137   -2.5664759   -1.5528622 
    3990   0.67270419            0    0.9881575    1.0087879   -2.5664483   -1.5576604 
    4000    0.6693941            0   0.98329521    1.0038241   -2.5659687   -1.5621446 
    4010   0.66593521            0   0.97821432   0.99863715   -2.5649993   -1.5663621 
    4020   0.66282606            0   0.97364719   0.99397466   -2.5637241   -1.5697495 
    4030   0.66061408            0   0.97039794   0.99065758   -2.5635997   -1.5729421 
    4040   0.65982696            0   0.96924171   0.98947721    -2.564719   -1.5752417 
    4050    0.6603666            0   0.97003441   0.99028646   -2.5673535    -1.577067 
    4060   0.66107943            0   0.97108151   0.99135542   -2.5695312   -1.5781758 
    4070    0.6614664            0   0.97164994   0.99193572   -2.5706019   -1.5786662 
    4080   0.66185764            0   0.97222465   0.99252242   -2.5714279   -1.5789055 
    4090   0.66204878            0   0.97250542   0.99280906   -2.5712748   -1.5784657 
    4100   0.66190413            0   0.97229294   0.99259214   -2.5699355   -1.5773433 
    4110   0.66211542            0   0.97260331   0.99290899   -2.5685608   -1.5756518 
    4120   0.66352267            0   0.97467046    0.9950193    -2.568564   -1.5735447 
    4130   0.66662541            0   0.97922818   0.99967217   -2.5706688   -1.5709966 
    4140   0.67114175            0   0.98586239    1.0064449   -2.5744155   -1.5679706 
    4150   0.67515157            0   0.99175255     1.012458   -2.5770588   -1.5646008 
    4160   0.67680031            0   0.99417443    1.0149305   -2.5761302   -1.5611997 
    4170   0.67623919            0   0.99335018     1.014089   -2.5718382   -1.5577492 
    4180      0.67474            0   0.99114797    1.0118408    -2.565828   -1.5539872 
    4190   0.67294727            0   0.98851457    1.0091524   -2.5591213   -1.5499689 
    4200   0.67183412            0   0.98687944    1.0074832   -2.5534165   -1.5459334 
    4210   0.67238509            0   0.98768876    1.0083094   -2.5499696   -1.5416603 
    4220   0.67428081            0   0.99047345    1.0111522   -2.5484964   -1.5373441 
    4230   0.67676649            0   0.99412475    1.0148797   -2.5478615   -1.5329818 
    4240   0.67978691            0   0.99856154    1.0194092   -2.5478272    -1.528418 
    4250   0.68388367            0    1.0045794    1.0255527   -2.5495475   -1.5239948 
    4260   0.68921129            0    1.0124053     1.033542   -2.5532595   -1.5197175 
    4270   0.69458592            0    1.0203003    1.0416018   -2.5572656   -1.5156638 
    4280   0.69844636            0     1.025971    1.0473909   -2.5593607   -1.5119698 
    4290   0.70021254            0    1.0285654    1.0500395   -2.5590403   -1.5090008 
    4300    0.7003741            0    1.0288028    1.0502817   -2.5567881   -1.5065063 
    4310   0.69979741            0    1.0279556    1.0494169   -2.5541962   -1.5047792 
    4320   0.69940966            0    1.0273861    1.0488355   -2.5524567   -1.5036213 
    4330   0.69947012            0    1.0274749    1.0489261   -2.5520273   -1.5031012 
    4340   0.69936316            0    1.0273177    1.0487657   -2.5518803   -1.5031145 
    4350   0.69903399            0    1.0268342    1.0482721   -2.5518737   -1.5036016 
    4360   0.69891319            0    1.0266568     1.048091   -2.5528318   -1.5047408 
    4370   0.69905415            0    1.0268638    1.0483024   -2.5547725   -1.5064702 
    4380   0.69930158            0    1.0272273    1.0486734   -2.5575071   -1.5088337 
    4390   0.69947118            0    1.0274764    1.0489277   -2.5605195   -1.5115918 
    4400   0.69902572            0    1.0268221    1.0482597   -2.5633381   -1.5150784 
    4410   0.69746211            0    1.0245252    1.0459149   -2.5649517   -1.5190368 
    4420   0.69484649            0    1.0206831    1.0419925    -2.565339   -1.5233465 
    4430    0.6913466            0     1.015542    1.0367441   -2.5648787   -1.5281346 
    4440   0.68722686            0    1.0094903    1.0305661   -2.5635499   -1.5329838 
    4450   0.68330282            0    1.0037262    1.0246816   -2.5623849   -1.5377032 
    4460   0.68048869            0   0.99959241    1.0204616   -2.5630432   -1.5425816 
    4470    0.6788658            0   0.99720849    1.0180279   -2.5651524   -1.5471245 
    4480   0.67811082            0   0.99609948    1.0168957   -2.5684097    -1.551514 
    4490   0.67731289            0   0.99492738    1.0156991   -2.5714643   -1.5557652 
    4500   0.67531584            0   0.99199384    1.0127043   -2.5724738   -1.5597694 
    4510   0.67228167            0   0.98753684    1.0081543   -2.5717766   -1.5636222 
    4520   0.66871033            0   0.98229079    1.0027987   -2.5697847    -1.566986 
    4530   0.66476617            0   0.97649708   0.99688405   -2.5666492   -1.5697652 
    4540   0.66100194            0   0.97096768   0.99123921   -2.5635236   -1.5722844 
    4550   0.65856779            0   0.96739207   0.98758895   -2.5619329    -1.574344 
    4560   0.65831297            0   0.96701776   0.98720683   -2.5628214   -1.5756146 
    4570   0.65984753            0   0.96927193   0.98950806   -2.5659203   -1.5764123 
    4580    0.6623687            0   0.97297536    0.9932888   -2.5697741   -1.5764853 
    4590   0.66531227            0   0.97729927   0.99770299   -2.5737049   -1.5760019 
    4600   0.66803719            0   0.98130199    1.0017893   -2.5767838   -1.5749945 
    4610   0.67004705            0   0.98425434    1.0048033   -2.5784951   -1.5736918 
    4620   0.67128787            0   0.98607703     1.006664   -2.5786115   -1.5719475 
    4630   0.67193121            0   0.98702205    1.0076288   -2.5777369   -1.5701081 
    4640   0.67212255            0   0.98730311    1.0079157   -2.5757213   -1.5678056 
    4650   0.67247264            0   0.98781737    1.0084407   -2.5737868   -1.5653462 
    4660   0.67399675            0   0.99005619    1.0107263   -2.5731926   -1.5624663 
    4670   0.67631903            0   0.99346746    1.0142087   -2.5737328   -1.5595241 
    4680   0.67768304            0   0.99547111    1.0162542    -2.572717   -1.5564627 
    4690   0.67724135            0   0.99482229    1.0155918   -2.5691016   -1.5535098 
    4700   0.67632519            0    0.9934765     1.014218    -2.564452    -1.550234 
    4710   0.67722262            0   0.99479478    1.0155638   -2.5625953   -1.5470316 
    4720   0.67984626            0   0.99864873    1.0194982   -2.5632145   -1.5437164 
    4730   0.68206408            0    1.0019066     1.022824    -2.563224      -1.5404 
    4740   0.68327047            0    1.0036787    1.0246331   -2.5616437   -1.5370106 
    4750       0.6842            0    1.0050441     1.026027    -2.559903    -1.533876 
    4760   0.68523507            0    1.0065645    1.0275792   -2.5584045   -1.5308253 
    4770   0.68649323            0    1.0084127     1.029466   -2.5572452   -1.5277793 
    4780   0.68787918            0    1.0104485    1.0315444   -2.5566465   -1.5251022 
    4790   0.68916751            0     1.012341    1.0334763   -2.5560362   -1.5225599 
    4800   0.69018904            0    1.0138416    1.0350082   -2.5553884   -1.5203802 
    4810   0.69119212            0     1.015315    1.0365124   -2.5550283   -1.5185159 
    4820   0.69247125            0     1.017194    1.0384306   -2.5553302   -1.5168996 
    4830   0.69374984            0    1.0190722     1.040348   -2.5557744   -1.5154264 
    4840   0.69510352            0    1.0210606     1.042378   -2.5568872   -1.5145092 
    4850   0.69692471            0    1.0237358     1.045109   -2.5591519   -1.5140429 
    4860   0.69859571            0    1.0261904    1.0476149   -2.5616719    -1.514057 
    4870   0.69893421            0    1.0266876    1.0481225   -2.5627369   -1.5146145 
    4880   0.69786077            0    1.0251108    1.0465128   -2.5623928     -1.51588 
    4890   0.69620711            0    1.0226817    1.0440329   -2.5614396   -1.5174066 
    4900   0.69400003            0    1.0194397    1.0407232   -2.5601472   -1.5194241 
    4910   0.69061398            0    1.0144658    1.0356455   -2.5577049   -1.5220595 
    4920    0.6860398            0    1.0077466     1.028786   -2.5537779   -1.5249919 
    4930   0.68135535            0    1.0008655    1.0217612   -2.5498076   -1.5280464 
    4940   0.67835212            0   0.99645393    1.0172576   -2.5480302   -1.5307727 
    4950   0.67758795            0   0.99533142    1.0161116     -2.54975   -1.5336384 
    4960    0.6779086            0   0.99580243    1.0165925   -2.5529546   -1.5363621 
    4970   0.67855066            0   0.99674558    1.0175553   -2.5564765   -1.5389213 
    4980   0.67955746            0    0.9982245    1.0190651   -2.5605239   -1.5414588 
    4990   0.68048783            0   0.99959116    1.0204603   -2.5642114   -1.5437511 
    5000   0.68070374            0    0.9999083     1.020784   -2.5670128   -1.5462288 
    5010    0.6799127            0   0.99874633    1.0195978   -2.5684891   -1.5488913 
    5020   0.67807086            0   0.99604078    1.0168358   -2.5682398   -1.5514041 
    5030   0.67558516            0   0.99238946    1.0131082   -2.5668976   -1.5537894 
    5040   0.67358103            0   0.98944552    1.0101028    -2.566239   -1.5561362 
    5050   0.67276896            0   0.98825265     1.008885   -2.5669421    -1.558057 
    5060   0.67224263            0   0.98747951    1.0080958    -2.567943   -1.5598472 
    5070    0.6714382            0   0.98629785    1.0068894    -2.568342   -1.5614526 
    5080    0.6714005            0   0.98624247    1.0068329   -2.5696358   -1.5628029 
    5090   0.67237774            0   0.98767797    1.0082984   -2.5720991   -1.5638007 
    5100   0.67349986            0    0.9893263    1.0099811   -2.5745517   -1.5645706 
    5110   0.67447136            0   0.99075336     1.011438   -2.5764722   -1.5650343 
    5120   0.67543174            0    0.9921641    1.0128782    -2.578185   -1.5653069 
    5130   0.67598641            0   0.99297887    1.0137099   -2.5791436   -1.5654337 
    5140   0.67562743            0   0.99245155    1.0131716   -2.5785719   -1.5654002 
    5150   0.67428996            0   0.99048689    1.0111659   -2.5765804   -1.5654145 
    5160   0.67225406            0   0.98749629    1.0081129   -2.5734003   -1.5652874 
    5170   0.66987922            0    0.9840078    1.0045516   -2.5693554   -1.5648039 
    5180    0.6672971            0   0.98021484    1.0006794   -2.5646334    -1.563954 
    5190   0.66498422            0   0.97681739   0.99721105   -2.5598294   -1.5626183 
    5200   0.66402227            0   0.97540434    0.9957685   -2.5565988   -1.5608303 
    5210   0.66533073            0   0.97732639   0.99773068   -2.5562238   -1.5584931 
    5220   0.66870568            0   0.98228397    1.0027918   -2.5585679   -1.5557761 
    5230   0.67278439            0   0.98827532    1.0089082   -2.5614994   -1.5525912 
    5240    0.6763884            0   0.99356936    1.0143128   -2.5634576   -1.5491448 
    5250   0.67925384            0   0.99777849    1.0186098   -2.5643862   -1.5457764 
    5260     0.681668            0    1.0013247    1.0222301   -2.5644578   -1.5422278 
    5270     0.684062            0    1.0048414    1.0258201    -2.564589   -1.5387689 
    5280   0.68630607            0    1.0081378    1.0291853   -2.5646061   -1.5354208 
    5290   0.68785176            0    1.0104083    1.0315032   -2.5640232     -1.53252 
    5300   0.68826611            0    1.0110169    1.0321246   -2.5619102   -1.5297857 
    5310   0.68815482            0    1.0108535    1.0319577   -2.5592453   -1.5272876 
    5320   0.68895436            0    1.0120279    1.0331567   -2.5583398   -1.5251831 
    5330   0.69135154            0    1.0155492    1.0367515   -2.5601132   -1.5233617 
    5340   0.69498711            0    1.0208896    1.0422034    -2.564082   -1.5218786 
    5350   0.69891552            0    1.0266602    1.0480945   -2.5689415   -1.5208471 
    5360   0.70161934            0    1.0306319    1.0521491   -2.5724369   -1.5202878 
    5370   0.70160728            0    1.0306142     1.052131   -2.5724137   -1.5202827 
    5380   0.69863423            0     1.026247    1.0476726   -2.5686921   -1.5210195 
    5390   0.69411058            0    1.0196021     1.040889   -2.5632399   -1.5223509 
    5400   0.69043636            0    1.0142049    1.0353791   -2.5592953   -1.5239162 
    5410   0.68942104            0    1.0127134    1.0338565   -2.5596337   -1.5257772 
    5420   0.69079601            0    1.0147332    1.0359184   -2.5641179   -1.5281995 
    5430   0.69237205            0    1.0170483    1.0382819   -2.5692468    -1.530965 
    5440   0.69193703            0    1.0164093    1.0376295   -2.5717465    -1.534117 
    5450   0.68885034            0    1.0118751    1.0330007   -2.5706051   -1.5376044 
    5460   0.68395008            0     1.004677    1.0256523   -2.5670729   -1.5414206 
    5470   0.67883697            0   0.99716614    1.0179846   -2.5632172   -1.5452326 
    5480   0.67477458            0   0.99119876    1.0118927   -2.5607551   -1.5488624 
    5490    0.6718987            0   0.98697429      1.00758   -2.5595337   -1.5519537 
    5500   0.67026164            0   0.98456956    1.0051251   -2.5598929   -1.5547678 
    5510   0.67005348            0   0.98426378    1.0048129   -2.5618915   -1.5570785 
    5520   0.67064126            0    0.9851272    1.0056943   -2.5648876   -1.5591932 
    5530   0.67128365            0   0.98607083    1.0066577   -2.5674471   -1.5607894 
    5540   0.67149102            0   0.98637544    1.0069687   -2.5690495   -1.5620808 
    5550    0.6710196            0   0.98568295    1.0062617    -2.569173   -1.5629113 
    5560   0.67019392            0   0.98447009    1.0050235    -2.568513   -1.5634895 
    5570   0.66959361            0   0.98358827    1.0041233   -2.5678123   -1.5636891 
    5580   0.66971619            0   0.98376833    1.0043071   -2.5679635   -1.5636564 
    5590   0.67100089            0   0.98565546    1.0062336   -2.5697184   -1.5634848 
    5600   0.67312248            0   0.98877194    1.0094152   -2.5720595   -1.5626443 
    5610   0.67479895            0   0.99123456    1.0119292   -2.5737924   -1.5618632 
    5620     0.674996            0   0.99152402    1.0122247   -2.5730386   -1.5608138 
    5630   0.67383846            0   0.98982367    1.0104889   -2.5699778    -1.559489 
    5640   0.67220233            0   0.98742031    1.0080353   -2.5657906   -1.5577552 
    5650   0.67077516            0   0.98532389    1.0058951   -2.5616803   -1.5557852 
    5660   0.67030754            0   0.98463698    1.0051939   -2.5585749    -1.553381 
    5670   0.67138283            0   0.98621651    1.0068064   -2.5572758   -1.5504694 
    5680   0.67372167            0   0.98965211    1.0103137   -2.5569945   -1.5466808 
    5690   0.67674145            0   0.99408796    1.0148422   -2.5578467   -1.5430045 
    5700   0.68029759            0    0.9993117     1.020175   -2.5589161   -1.5387411 
    5710    0.6846963            0    1.0057731    1.0267713    -2.561033   -1.5342617 
    5720   0.68982425            0    1.0133057    1.0344612   -2.5643059   -1.5298447 
    5730   0.69541259            0    1.0215146    1.0428415   -2.5687711   -1.5259296 
    5740   0.70117641            0    1.0299813    1.0514849   -2.5739697   -1.5224848 
    5750   0.70570267            0    1.0366301    1.0582725   -2.5782991   -1.5200266 
    5760   0.70776597            0    1.0396609    1.0613666   -2.5795746    -1.518208 
    5770   0.70676697            0    1.0381934    1.0598685   -2.5773257   -1.5174572 
    5780   0.70324949            0    1.0330265    1.0545937   -2.5718432   -1.5172495 
    5790    0.6987103            0    1.0263587    1.0477867   -2.5656207    -1.517834 
    5800   0.69445509            0    1.0201081    1.0414056   -2.5607103   -1.5193047 
    5810   0.69133008            0    1.0155177    1.0367193   -2.5575688   -1.5208495 
    5820   0.68945994            0    1.0127706    1.0339149   -2.5563692   -1.5224544 
    5830   0.68824365            0    1.0109839    1.0320909   -2.5561246   -1.5240337 
    5840    0.6868945            0    1.0090021    1.0300677   -2.5559181   -1.5258504 
    5850   0.68499698            0    1.0062148    1.0272222   -2.5551102    -1.527888 
    5860   0.68297253            0     1.003241    1.0241863   -2.5539186   -1.5297322 
    5870   0.68151882            0    1.0011056    1.0220063   -2.5533885   -1.5313821 
    5880   0.68057882            0   0.99972481    1.0205967   -2.5533592   -1.5327624 
    5890   0.68006381            0   0.99896829    1.0198244   -2.5538287   -1.5340043 
    5900   0.68011769            0   0.99904744    1.0199052   -2.5546583   -1.5347531 
    5910   0.68022485            0   0.99920486    1.0200659   -2.5555992   -1.5355332 
    5920   0.67988543            0   0.99870626    1.0195569   -2.5556664   -1.5361095 
    5930   0.67981406            0   0.99860143    1.0194499   -2.5563038   -1.5368539 
    5940   0.68079033            0    1.0000355    1.0209139   -2.5581367   -1.5372228 
    5950   0.68265668            0     1.002777    1.0237127   -2.5612555   -1.5375429 
    5960    0.6849649            0    1.0061677    1.0271741   -2.5650008   -1.5378267 
    5970   0.68665119            0    1.0086447    1.0297029   -2.5680253   -1.5383224 
    5980   0.68657878            0    1.0085384    1.0295943   -2.5684857   -1.5388914 
    5990   0.68503148            0    1.0062655    1.0272739   -2.5666219    -1.539348 
    6000   0.68321515            0    1.0035974    1.0245502   -2.5645673   -1.5400172 
    6010   0.68183404            0    1.0015686    1.0224791   -2.5632086   -1.5407295 
    6020   0.68107595            0    1.0004551    1.0213422   -2.5627343   -1.5413921 
    6030   0.68092862            0    1.0002386    1.0211213   -2.5633427   -1.5422214 
    6040   0.68144372            0    1.0009953    1.0218937   -2.5648999   -1.5430062 
    6050   0.68239844            0    1.0023977    1.0233254   -2.5671469   -1.5438215 
    6060   0.68312749            0    1.0034686    1.0244187    -2.568966   -1.5445473 
    6070   0.68331007            0    1.0037368    1.0246925   -2.5698109   -1.5451184 
    6080   0.68303893            0    1.0033385    1.0242859   -2.5702784   -1.5459925 
    6090   0.68246139            0    1.0024902    1.0234198   -2.5700841   -1.5466643 
    6100   0.68153753            0    1.0011331    1.0220344   -2.5697307   -1.5476963 
    6110   0.68037113            0   0.99941973    1.0202853   -2.5690271   -1.5487418 
    6120   0.67956455            0   0.99823491    1.0190757   -2.5686197    -1.549544 
    6130   0.67943288            0    0.9980415    1.0188783   -2.5692982   -1.5504199 
    6140    0.6794704            0   0.99809662    1.0189345   -2.5704699   -1.5515354 
    6150   0.67909669            0   0.99754766    1.0183741   -2.5708276   -1.5524535 
    6160   0.67874527            0   0.99703145    1.0178471   -2.5712384   -1.5533913 
    6170    0.6789394            0   0.99731661    1.0181383   -2.5726322   -1.5544939 
    6180   0.67869244            0   0.99695384    1.0177679   -2.5732171   -1.5554492 
    6190   0.67707376            0   0.99457611    1.0153405    -2.571784   -1.5564434 
    6200   0.67485191            0   0.99131237    1.0120086   -2.5696544   -1.5576457 
    6210    0.6734401            0    0.9892385    1.0098915   -2.5687064   -1.5588149 
    6220   0.67322925            0   0.98892878    1.0095753   -2.5694432   -1.5598679 
    6230   0.67399044            0   0.99004691    1.0107168   -2.5718592   -1.5611424 
    6240   0.67543025            0   0.99216191    1.0128759   -2.5753772   -1.5625013 
    6250   0.67705719            0   0.99455176    1.0153157   -2.5791194   -1.5638037 
    6260    0.6781569            0   0.99616717    1.0169648   -2.5822778    -1.565313 
    6270   0.67764711            0   0.99541833    1.0162003   -2.5832528   -1.5670525 
    6280   0.67499761            0   0.99152639    1.0122271   -2.5812347   -1.5690076 
    6290   0.67122222            0   0.98598059    1.0065656    -2.577641   -1.5710754 
    6300   0.66810536            0   0.98140213    1.0018915   -2.5748557   -1.5729642 
    6310   0.66654227            0   0.97910605   0.99954749   -2.5745193   -1.5749718 
    6320   0.66632213            0   0.97878269   0.99921738   -2.5761098   -1.5768924 
    6330   0.66691944            0   0.97966009    1.0001131   -2.5783933   -1.5782802 
    6340    0.6679235            0   0.98113499    1.0016188   -2.5810845   -1.5794657 
    6350   0.66891394            0   0.98258988    1.0031041   -2.5836936   -1.5805896 
    6360   0.66927557            0   0.98312109    1.0036464   -2.5849771   -1.5813308 
    6370   0.66844108            0   0.98189528     1.002395   -2.5839726   -1.5815776 
    6380   0.66685162            0   0.97956047    1.0000114   -2.5815586   -1.5815472 
    6390   0.66588974            0   0.97814753   0.99856896   -2.5795886   -1.5810196 
    6400   0.66636806            0   0.97885015   0.99928625   -2.5793407   -1.5800544 
    6410    0.6676617            0   0.98075043    1.0012262   -2.5799444   -1.5787182 
    6420   0.66860525            0   0.98213643    1.0026411   -2.5794923   -1.5768511 
    6430   0.66909346            0   0.98285359    1.0033733   -2.5775937   -1.5742204 
    6440   0.67011265            0    0.9843507    1.0049016   -2.5760893   -1.5711876 
    6450   0.67219219            0   0.98740541    1.0080201   -2.5758074   -1.5677873 
    6460   0.67479221            0   0.99122466    1.0119191   -2.5758587   -1.5639396 
    6470   0.67735823            0   0.99499397    1.0157671   -2.5756971   -1.5599299 
    6480   0.68006539            0   0.99897061    1.0198268   -2.5756382   -1.5558114 
    6490   0.68308045            0    1.0033995    1.0243482     -2.57627   -1.5519218 
    6500   0.68562005            0      1.00713    1.0281566   -2.5763262   -1.5481696 
    6510   0.68685609            0    1.0089457    1.0300101   -2.5749189   -1.5449088 
    6520   0.68694448            0    1.0090755    1.0301427   -2.5721023   -1.5419596 
    6530   0.68676947            0    1.0088185    1.0298802   -2.5694994   -1.5396192 
    6540   0.68741534            0    1.0097672    1.0308488   -2.5681223   -1.5372735 
    6550   0.68920738            0    1.0123996    1.0335361   -2.5687759   -1.5352398 
    6560   0.69199149            0    1.0164893    1.0377112   -2.5713182   -1.5336071 
    6570   0.69524112            0    1.0212628    1.0425843    -2.575103   -1.5325186 
    6580   0.69785684            0    1.0251051    1.0465069    -2.578179   -1.5316722 
    6590   0.69888265            0    1.0266119    1.0480452   -2.5795849   -1.5315398 
    6600   0.69780789            0    1.0250332    1.0464334   -2.5785446   -1.5321112 
    6610   0.69534587            0    1.0214166    1.0427414   -2.5755446   -1.5328032 
    6620   0.69229119            0    1.0169295    1.0381606   -2.5721939   -1.5340333 
    6630   0.68943942            0    1.0127404    1.0338841   -2.5695784   -1.5356943 
    6640   0.68762273            0    1.0100718    1.0311598   -2.5687445   -1.5375847 
    6650   0.68620775            0    1.0079933    1.0290379   -2.5687307   -1.5396928 
    6660   0.68456961            0     1.005587    1.0265813   -2.5684358   -1.5418545 
    6670   0.68344285            0    1.0039319    1.0248916   -2.5691073   -1.5442157 
    6680   0.68212241            0    1.0019922    1.0229115   -2.5696673   -1.5467558 
    6690   0.67952781            0   0.99818094    1.0190206   -2.5684399   -1.5494192 
    6700   0.67638657            0   0.99356668      1.01431   -2.5663847   -1.5520746 
    6710   0.67438432            0    0.9906255    1.0113074   -2.5659251   -1.5546176 
    6720   0.67435285            0   0.99057927    1.0112602   -2.5679793   -1.5567191 
    6730   0.67560848            0   0.99242371    1.0131432   -2.5718548   -1.5587116 
    6740   0.67675281            0   0.99410465    1.0148592   -2.5755752   -1.5607159 
    6750     0.677055            0   0.99454855    1.0153124   -2.5779947   -1.5626823 
    6760   0.67665825            0   0.99396575    1.0147174   -2.5791023   -1.5643848 
    6770   0.67592548            0   0.99288936    1.0136186   -2.5797844   -1.5661659 
    6780   0.67489389            0   0.99137402    1.0120716   -2.5799351   -1.5678635 
    6790   0.67369795            0   0.98961727    1.0102782    -2.579532   -1.5692539 
    6800   0.67292815            0   0.98848649    1.0091238   -2.5797739   -1.5706501 
    6810   0.67313704            0   0.98879333     1.009437   -2.5813224   -1.5718853 
    6820   0.67421985            0   0.99038391    1.0110608   -2.5840502   -1.5729894 
    6830   0.67569357            0   0.99254871    1.0132708   -2.5874373   -1.5741665 
    6840   0.67675153            0   0.99410277    1.0148573   -2.5902257   -1.5753684 
    6850   0.67632336            0   0.99347381    1.0142152   -2.5908064   -1.5765912 
    6860    0.6739532            0   0.98999221    1.0106609   -2.5885793   -1.5779184 
    6870   0.67009219            0   0.98432065     1.004871   -2.5840458   -1.5791748 
    6880   0.66607827            0   0.97842447   0.99885168   -2.5796259   -1.5807742 
    6890   0.66356803            0    0.9747371   0.99508733   -2.5773928   -1.5823055 
    6900   0.66286942            0   0.97371088   0.99403968   -2.5778102   -1.5837705 
    6910   0.66279335            0   0.97359914   0.99392561   -2.5790858   -1.5851602 
    6920   0.66252665            0   0.97320738   0.99352567    -2.579589   -1.5860634 
    6930   0.66264418            0   0.97338002   0.99370192   -2.5801797   -1.5864777 
    6940   0.66393464            0   0.97527562   0.99563709   -2.5821882   -1.5865511 
    6950   0.66570455            0   0.97787551   0.99829126   -2.5843773   -1.5860861 
    6960   0.66682448            0    0.9795206   0.99997069   -2.5850798   -1.5851091 
    6970   0.66739124            0   0.98035313    1.0008206   -2.5845082   -1.5836876 
    6980   0.66792265            0   0.98113375    1.0016175   -2.5832212   -1.5816037 
    6990   0.66828597            0   0.98166743    1.0021623   -2.5810956   -1.5789333 
    7000    0.6682204            0   0.98157111     1.002064   -2.5780355   -1.5759715 
    7010   0.66788168            0   0.98107356    1.0015561   -2.5742002   -1.5726441 
    7020    0.6680266            0   0.98128643    1.0017734   -2.5704692   -1.5686958 
    7030   0.67004057            0   0.98424482    1.0047935   -2.5693163   -1.5645228 
    7040   0.67445442            0   0.99072847    1.0114126   -2.5717929   -1.5603803 
    7050   0.68011659            0   0.99904582    1.0199036   -2.5758101   -1.5559065 
    7060   0.68577263            0    1.0073542    1.0283854   -2.5801269   -1.5517415 
    7070   0.69091637            0      1.01491    1.0360989   -2.5840551   -1.5479562 
    7080   0.69516967            0    1.0211578    1.0424772   -2.5871911    -1.544714 
    7090   0.69819792            0    1.0256061    1.0470183   -2.5891957   -1.5421774 
    7100   0.69976715            0    1.0279112    1.0493716   -2.5896158   -1.5402442 
    7110   0.69965363            0    1.0277444    1.0492013   -2.5882139   -1.5390125 
    7120    0.6978634            0    1.0251147    1.0465167   -2.5850286   -1.5385119 
    7130   0.69482139            0    1.0206462    1.0419549   -2.5803945   -1.5384396 
    7140   0.69110886            0    1.0151927    1.0363876   -2.5752565   -1.5388689 
    7150   0.68736416            0     1.009692     1.030772   -2.5702563   -1.5394843 
    7160    0.6850485            0    1.0062905    1.0272995   -2.5675896   -1.5402901 
    7170    0.6848658            0    1.0060221    1.0270255   -2.5682419   -1.5412164 
    7180   0.68565925            0    1.0071876    1.0282153   -2.5705128   -1.5422975 
    7190   0.68647697            0    1.0083888    1.0294416   -2.5729692   -1.5435276 
    7200   0.68666307            0    1.0086622    1.0297207   -2.5748363   -1.5451156 
    7210   0.68552878            0     1.006996    1.0280197    -2.574891   -1.5468714 
    7220   0.68330171            0    1.0037246      1.02468   -2.5735664   -1.5488864 
    7230   0.68075324            0   0.99998102    1.0208583   -2.5718049   -1.5509466 
    7240   0.67848832            0     0.996654    1.0174618   -2.5705158    -1.553054 
    7250   0.67692241            0   0.99435378    1.0151136   -2.5701758   -1.5550622 
    7260   0.67629063            0   0.99342575    1.0141662   -2.5715232    -1.557357 
    7270   0.67664096            0   0.99394036    1.0146915   -2.5740797   -1.5593882 
    7280   0.67790709            0   0.99580021    1.0165902   -2.5781603   -1.5615701 
    7290   0.67957003            0   0.99824296    1.0190839    -2.582893   -1.5638091 
    7300   0.68074795            0   0.99997324    1.0208503   -2.5868824    -1.566032 
    7310   0.68073767            0   0.99995815    1.0208349   -2.5891339    -1.568299 
    7320   0.67931182            0   0.99786368    1.0186967    -2.589388   -1.5706913 
    7330   0.67668197            0    0.9940006     1.014753   -2.5879519   -1.5731989 
    7340     0.673404            0   0.98918548    1.0098374   -2.5852699   -1.5754326 
    7350   0.67047177            0   0.98487823    1.0054402   -2.5833634   -1.5779232 
    7360   0.66865645            0   0.98221165    1.0027179   -2.5828567   -1.5801388 
    7370   0.66753851            0   0.98056946    1.0010415   -2.5831055   -1.5820641 
    7380   0.66670719            0   0.97934832   0.99979482   -2.5836897   -1.5838948 
    7390   0.66601823            0   0.97833628   0.99876165   -2.5837936   -1.5850319 
    7400   0.66493103            0   0.97673926   0.99713129   -2.5832868   -1.5861555 
    7410    0.6633492            0   0.97441565   0.99475917   -2.5814657   -1.5867065 
    7420   0.66201455            0   0.97245514   0.99275773   -2.5795897    -1.586832 
    7430   0.66125425            0   0.97133831   0.99161758   -2.5780324   -1.5864148 
    7440   0.66183052            0    0.9721848   0.99248175    -2.577692   -1.5852103 
    7450   0.66435695            0   0.97589597   0.99627039   -2.5796203   -1.5833499 
    7460   0.66812198            0   0.98142655    1.0019164   -2.5823364   -1.5804199 
    7470   0.67221301            0   0.98743599    1.0080513   -2.5846139   -1.5765626 
    7480   0.67617841            0    0.9932609    1.0139979   -2.5857729    -1.571775 
    7490   0.67978837            0   0.99856369    1.0194114   -2.5854273   -1.5660159 
    7500   0.68306442            0     1.003376    1.0243241   -2.5844495   -1.5601253 
    7510   0.68595026            0    1.0076151    1.0286517   -2.5828084   -1.5541567 
    7520   0.68886943            0    1.0119032    1.0330293   -2.5814396   -1.5484103 
    7530   0.69241703            0    1.0171143    1.0383493   -2.5818068   -1.5434575 
    7540   0.69555373            0    1.0217219    1.0430531   -2.5824938   -1.5394407 
    7550   0.69668408            0    1.0233824    1.0447482   -2.5810894   -1.5363412 
    7560   0.69613313            0     1.022573     1.043922   -2.5780051   -1.5340831 
    7570   0.69584086            0    1.0221437    1.0434837   -2.5759335   -1.5324498 
    7580   0.69626498            0    1.0227667    1.0441197   -2.5757323   -1.5316125 
    7590    0.6956338            0    1.0218396    1.0431732   -2.5744187   -1.5312455 
    7600   0.69339859            0    1.0185562    1.0398213    -2.571092   -1.5312707 
    7610   0.69034534            0    1.0140712    1.0352426   -2.5671003   -1.5318577 
    7620   0.68833064            0    1.0111117    1.0322214   -2.5647824    -1.532561 
    7630   0.68920084            0      1.01239    1.0335263   -2.5670145   -1.5334882 
    7640   0.69284377            0    1.0177412    1.0389893    -2.573586   -1.5345968 
    7650   0.69675058            0      1.02348    1.0448479   -2.5810107   -1.5361628 
    7660   0.69829298            0    1.0257457    1.0471609   -2.5852697   -1.5381088 
    7670   0.69700572            0    1.0238548    1.0452305   -2.5857407   -1.5405102 
    7680   0.69382562            0    1.0191835    1.0404616   -2.5836856    -1.543224 
    7690   0.68959092            0     1.012963    1.0341113   -2.5806302   -1.5465189 
    7700   0.68531069            0    1.0066756    1.0276926   -2.5774421   -1.5497494 
    7710   0.68283064            0    1.0030326    1.0239736   -2.5770303   -1.5530567 
    7720   0.68303778            0    1.0033369    1.0242842   -2.5803898   -1.5561056 
    7730   0.68438999            0    1.0053232     1.026312   -2.5854547   -1.5591428 
    7740   0.68461215            0    1.0056495    1.0266451   -2.5886885   -1.5620434 
    7750   0.68265843            0    1.0027796    1.0237153   -2.5885332   -1.5648179 
    7760    0.6791688            0   0.99765358    1.0184823    -2.586043   -1.5675607 
    7770    0.6756228            0   0.99244475    1.0131647   -2.5829202   -1.5697556 
    7780     0.673228            0   0.98892695    1.0095734   -2.5813054   -1.5717319 
    7790   0.67223329            0   0.98746578    1.0080818   -2.5811744   -1.5730927 
    7800   0.67214567            0   0.98733708    1.0079504   -2.5822443   -1.5742939 
    7810   0.67267093            0   0.98810864     1.008738   -2.5837651   -1.5750271 
    7820    0.6741024            0   0.99021138    1.0108847   -2.5864071   -1.5755225 
    7830   0.67645179            0   0.99366248    1.0144078   -2.5900622   -1.5756544 
    7840    0.6790845            0   0.99752975    1.0183558   -2.5940027   -1.5756469 
    7850   0.68098055            0    1.0003149    1.0211992   -2.5969164   -1.5757173 
    7860   0.68165936            0    1.0013121    1.0222171   -2.5978492   -1.5756321 
    7870   0.68128719            0    1.0007654     1.021659   -2.5972576   -1.5755986 
    7880   0.68017589            0   0.99913294    1.0199925   -2.5957982   -1.5758057 
    7890   0.67835257            0    0.9964546    1.0172582   -2.5931795   -1.5759213 
    7900   0.67590402            0   0.99285783    1.0135864   -2.5895177   -1.5759314 
    7910   0.67363149            0   0.98951964    1.0101785   -2.5859588   -1.5757803 
    7920   0.67244045            0   0.98777009    1.0083924   -2.5838122   -1.5754198 
    7930   0.67251951            0   0.98788623     1.008511    -2.583336    -1.574825 
    7940   0.67367834            0   0.98958846    1.0102488   -2.5841538   -1.5739051 
    7950   0.67550376            0   0.99226988    1.0129862   -2.5858221   -1.5728359 
    7960   0.67739501            0     0.995048    1.0158223   -2.5875531   -1.5717308 
    7970   0.67951374            0   0.99816027    1.0189995   -2.5895856   -1.5705861 
    7980   0.68221653            0    1.0021305    1.0230526   -2.5923531   -1.5693004 
    7990   0.68475262            0    1.0058558    1.0268558   -2.5949376   -1.5680819 
    8000   0.68617304            0    1.0079423    1.0289858   -2.5960554   -1.5670696 
    8010   0.68648076            0    1.0083944    1.0294473   -2.5955952   -1.5661479 
    8020   0.68640606            0    1.0082846    1.0293353   -2.5947883   -1.5654531 
    8030   0.68625366            0    1.0080608    1.0291067   -2.5939482   -1.5648414 
    8040   0.68564628            0    1.0071686    1.0281959    -2.592413   -1.5642171 
    8050   0.68441952            0    1.0053665    1.0263562   -2.5899208   -1.5635646 
    8060   0.68307973            0    1.0033985    1.0243471   -2.5875278   -1.5631807 
    8070   0.68217277            0    1.0020662     1.022987   -2.5857995   -1.5628124 
    8080   0.68172988            0    1.0014156    1.0223229   -2.5846778   -1.5623549 
    8090    0.6818072            0    1.0015292    1.0224388   -2.5843314   -1.5618926 
    8100   0.68176667            0    1.0014697     1.022378   -2.5836864   -1.5613083 
    8110   0.68033229            0   0.99936267     1.020227   -2.5807758   -1.5605488 
    8120   0.67781472            0   0.99566453    1.0164517   -2.5756908   -1.5592391 
    8130   0.67648176            0   0.99370651    1.0144528   -2.5722637    -1.557811 
    8140   0.67891371            0   0.99727887    1.0180997   -2.5737187    -1.555619 
    8150   0.68465811            0     1.005717     1.026714   -2.5798884   -1.5531743 
    8160   0.69091794            0    1.0149123    1.0361013   -2.5863549   -1.5502536 
    8170   0.69597573            0    1.0223418    1.0436859   -2.5909043   -1.5472184 
    8180   0.69948858            0     1.027502    1.0489538    -2.593584   -1.5446301 
    8190   0.70159837            0    1.0306011    1.0521177   -2.5945096   -1.5423919 
    8200   0.70249673            0    1.0319208    1.0534648   -2.5940448   -1.5405799 
    8210   0.70240633            0     1.031788    1.0533293   -2.5928638   -1.5395346 
    8220   0.70113078            0    1.0299143    1.0514165   -2.5905991   -1.5391826 
    8230   0.69864059            0    1.0262563    1.0476822   -2.5869828   -1.5393006 
    8240   0.69599342            0    1.0223678    1.0437125   -2.5836086   -1.5398961 
    8250   0.69413246            0    1.0196342    1.0409218     -2.58179   -1.5408682 
    8260   0.69363169            0    1.0188986    1.0401708   -2.5825239   -1.5423531 
    8270      0.69453            0    1.0202182    1.0415179   -2.5858749   -1.5443569 
    8280   0.69568011            0    1.0219076    1.0432426   -2.5903816    -1.547139 
    8290    0.6958177            0    1.0221097     1.043449   -2.5937441   -1.5502952 
    8300    0.6946054            0    1.0203289     1.041631   -2.5953661   -1.5537351 
    8310   0.69207757            0    1.0166157    1.0378403   -2.5957338   -1.5578935 
    8320   0.68854259            0    1.0114231    1.0325392   -2.5946493   -1.5621101 
    8330   0.68537168            0    1.0067652    1.0277841   -2.5939015   -1.5661174 
    8340   0.68352513            0    1.0040527     1.025015   -2.5953367   -1.5703217 
    8350   0.68255095            0    1.0026217    1.0235541   -2.5978402   -1.5742861 
    8360    0.6816163            0    1.0012488    1.0221525   -2.6002571   -1.5781046 
    8370   0.68020994            0   0.99918294    1.0200435   -2.6014472   -1.5814037 
    8380   0.67795486            0   0.99587039    1.0166618   -2.6010576   -1.5843958 
    8390    0.6749442            0   0.99144793     1.012147   -2.5994124   -1.5872654 
    8400   0.67209143            0    0.9872574     1.007869   -2.5977105   -1.5898414 
    8410   0.67022138            0   0.98451042    1.0050647   -2.5968276   -1.5917629 
    8420   0.66919255            0   0.98299913    1.0035219   -2.5968878    -1.593366 
    8430   0.66831052            0    0.9817035    1.0021992   -2.5964962    -1.594297 
    8440     0.667515            0   0.98053494    1.0010062   -2.5960218   -1.5950156 
    8450   0.66725536            0   0.98015354    1.0006169   -2.5960722   -1.5954553 
    8460   0.66730827            0   0.98023126    1.0006962   -2.5961661   -1.5954699 
    8470   0.66742236            0   0.98039885    1.0008673    -2.595927   -1.5950597 
    8480   0.66762157            0   0.98069148     1.001166   -2.5954388   -1.5942727 
    8490   0.66787633            0    0.9810657    1.0015481   -2.5945492   -1.5930012 
    8500   0.66827218            0   0.98164718    1.0021417   -2.5933052   -1.5911635 
    8510   0.66968491            0   0.98372239    1.0042602   -2.5932313   -1.5889711 
    8520   0.67288015            0   0.98841598    1.0090518   -2.5954648    -1.586413 
    8530   0.67696465            0   0.99441583    1.0151769   -2.5987548   -1.5835779 
    8540   0.68013881            0   0.99907846    1.0199369   -2.6006746   -1.5807377 
    8550   0.68138263            0    1.0009055    1.0218021   -2.5994723   -1.5776702 
    8560   0.68128641            0    1.0007642    1.0216578    -2.596394   -1.5747362 
    8570   0.68150987            0    1.0010925    1.0219929   -2.5936513   -1.5716584 
    8580   0.68256201            0     1.002638    1.0235707   -2.5920104   -1.5684397 
    8590   0.68363353            0     1.004212    1.0251776    -2.590743   -1.5655655 
    8600   0.68446258            0    1.0054298    1.0264208    -2.589322   -1.5629012 
    8610   0.68511668            0    1.0063906    1.0274017   -2.5876553   -1.5602536 
    8620    0.6856071            0     1.007111    1.0281371   -2.5861846   -1.5580474 
    8630   0.68591706            0    1.0075663    1.0286019   -2.5846559    -1.556054 
    8640   0.68635115            0     1.008204    1.0292529   -2.5836591   -1.5544062 
    8650   0.68707781            0    1.0092714    1.0303426   -2.5832668   -1.5529242 
    8660   0.68754137            0    1.0099523    1.0310378   -2.5827548   -1.5517171 
    8670   0.68753886            0    1.0099486     1.031034   -2.5815057   -1.5504717 
    8680   0.68760445            0     1.010045    1.0311324   -2.5808155   -1.5496832 
    8690   0.68800771            0    1.0106373    1.0317371   -2.5806253   -1.5488882 
    8700   0.68881897            0     1.011829    1.0329537   -2.5814254   -1.5484718 
    8710   0.68994225            0    1.0134791    1.0346381   -2.5828477   -1.5482096 
    8720    0.6904031            0     1.014156    1.0353292   -2.5834579   -1.5481287 
    8730   0.68981358            0    1.0132901    1.0344452    -2.582863   -1.5484178 
    8740   0.68844645            0    1.0112818     1.032395   -2.5815287   -1.5491336 
    8750   0.68656119            0    1.0085125    1.0295679   -2.5794403   -1.5498724 
    8760   0.68484728            0    1.0059949    1.0269977   -2.5780202   -1.5510225 
[...]
    7860   0.85315302            0    1.2532248    1.2793892   -2.5824031   -1.3030139 
    7870    0.8528656            0    1.2528026    1.2789582   -2.5817357   -1.3027775 
    7880    0.8520447            0    1.2515967    1.2777271   -2.5798892   -1.3021621 
    7890   0.85130301            0    1.2505072    1.2766149   -2.5780297   -1.3014148 
    7900   0.85061565            0    1.2494976    1.2755841   -2.5760687   -1.3004846 
    7910   0.85026806            0     1.248987    1.2750629   -2.5742913   -1.2992284 
    7920   0.85088186            0    1.2498886    1.2759833    -2.573796   -1.2978126 
    7930   0.85252253            0    1.2522986    1.2784437   -2.5744411   -1.2959974 
    7940   0.85528112            0    1.2563508    1.2825805   -2.5764032   -1.2938227 
    7950   0.85899223            0    1.2618022    1.2881457   -2.5795659   -1.2914203 
    7960   0.86257313            0    1.2670623    1.2935156   -2.5824188   -1.2889033 
    7970   0.86524686            0    1.2709898    1.2975251   -2.5837978   -1.2862727 
    7980   0.86723633            0    1.2739122    1.3005085   -2.5839433   -1.2834348 
    7990   0.86932712            0    1.2769835    1.3036439   -2.5839787   -1.2803348 
    8000   0.87171116            0    1.2804855     1.307219   -2.5848458   -1.2776268 
    8010   0.87312335            0    1.2825599    1.3093367   -2.5845724   -1.2752357 
    8020   0.87234109            0    1.2814108    1.3081636   -2.5812004   -1.2730368 
    8030    0.8700946            0    1.2781108    1.3047948   -2.5757406   -1.2709459 
    8040   0.86846403            0    1.2757156    1.3023496   -2.5715476   -1.2691981 
    8050   0.86830732            0    1.2754854    1.3021146   -2.5698332   -1.2677186 
    8060   0.86859285            0    1.2759049    1.3025428   -2.5689817    -1.266439 
    8070   0.86805818            0    1.2751195     1.301741   -2.5670768   -1.2653358 
    8080   0.86689644            0    1.2734129    1.2999988   -2.5645562   -1.2645574 
    8090   0.86638222            0    1.2726576    1.2992277    -2.563026   -1.2637983 
    8100   0.86710424            0    1.2737182    1.3003104   -2.5632989   -1.2629884 
    8110   0.86914703            0    1.2767189    1.3033738   -2.5658126   -1.2624388 
    8120   0.87267304            0    1.2818984    1.3086614   -2.5707625   -1.2621011 
    8130   0.87756347            0    1.2890821    1.3159951   -2.5782473   -1.2622522 
    8140   0.88260177            0     1.296483    1.3235506   -2.5862099   -1.2626594 
    8150   0.88600158            0    1.3014771    1.3286489   -2.5917777   -1.2631288 
    8160   0.88652871            0    1.3022514    1.3294394   -2.5935127   -1.2640733 
    8170   0.88422613            0    1.2988691    1.3259865   -2.5915635   -1.2655771 
    8180   0.88066292            0     1.293635     1.320643   -2.5885717   -1.2679286 
    8190   0.87743024            0    1.2888864    1.3157953   -2.5868658   -1.2710705 
    8200   0.87492483            0    1.2852061    1.3120382   -2.5868743   -1.2748361 
    8210   0.87302466            0    1.2824149    1.3091887    -2.588547   -1.2793582 
    8220   0.87139824            0    1.2800258    1.3067497   -2.5911576   -1.2844079 
    8230   0.86946415            0    1.2771847    1.3038494   -2.5933452   -1.2894959 
    8240   0.86669961            0    1.2731238    1.2997037    -2.593983   -1.2942793 
    8250   0.86265062            0    1.2671761    1.2936318   -2.5921731   -1.2985413 
    8260    0.8571108            0    1.2590385    1.2853243   -2.5870264   -1.3017021 
    8270   0.85073265            0    1.2496694    1.2757596   -2.5794349   -1.3036753 
    8280   0.84528653            0    1.2416694    1.2675926    -2.572633   -1.3050404 
    8290   0.84261338            0    1.2377428    1.2635839   -2.5690239     -1.30544 
    8300   0.84330913            0    1.2387648    1.2646273   -2.5698226   -1.3051953 
    8310   0.84659126            0     1.243586    1.2695492   -2.5738145   -1.3042653 
    8320   0.85099753            0    1.2500585    1.2761568   -2.5793893   -1.3032325 
    8330   0.85549937            0    1.2566714    1.2829078   -2.5847061   -1.3017983 
    8340   0.86003489            0    1.2633338    1.2897092   -2.5898128   -1.3001035 
    8350   0.86464311            0     1.270103    1.2966197   -2.5951414   -1.2985217 
    8360   0.86872409            0    1.2760976    1.3027396    -2.599678   -1.2969384 
    8370   0.87117615            0    1.2796996    1.3064167   -2.6021332   -1.2957165 
    8380   0.87158975            0    1.2803071    1.3070369   -2.6015036   -1.2944667 
    8390   0.87071414            0    1.2790209    1.3057239    -2.599224   -1.2935001 
    8400   0.86946667            0    1.2771884    1.3038531   -2.5965027   -1.2926496 
    8410   0.86770289            0    1.2745976    1.3012082   -2.5931644   -1.2919563 
    8420    0.8649656            0    1.2705767    1.2971033   -2.5881395   -1.2910362 
    8430   0.86199981            0    1.2662201    1.2926558   -2.5828438    -1.290188 
    8440   0.86035566            0     1.263805    1.2901903    -2.579457   -1.2892667 
    8450   0.86094271            0    1.2646673    1.2910706   -2.5788921   -1.2878215 
    8460    0.8632478            0    1.2680533    1.2945273   -2.5807354   -1.2862081 
    8470   0.86640306            0    1.2726882     1.299259   -2.5836767   -1.2844177 
    8480   0.86964135            0     1.277445    1.3041151   -2.5862253   -1.2821102 
    8490   0.87245006            0    1.2815708     1.308327   -2.5882755   -1.2799485 
    8500   0.87456497            0    1.2846775    1.3114986   -2.5894129   -1.2779144 
    8510   0.87594577            0    1.2867058    1.3135692   -2.5896428   -1.2760736 
    8520   0.87685756            0    1.2880452    1.3149365   -2.5893349   -1.2743984 
    8530   0.87746537            0     1.288938     1.315848   -2.5887648   -1.2729168 
    8540   0.87765826            0    1.2892213    1.3161373   -2.5881454   -1.2720081 
    8550   0.87705447            0    1.2883344    1.3152318   -2.5867703   -1.2715384 
    8560   0.87528567            0    1.2857362    1.3125793   -2.5840523   -1.2714729 
    8570   0.87258413            0    1.2817678    1.3085281   -2.5803732   -1.2718451 
    8580   0.86984462            0    1.2777436    1.3044199   -2.5769654   -1.2725455 
    8590   0.86771815            0      1.27462    1.3012311   -2.5749276   -1.2736965 
    8600   0.86657867            0    1.2729462    1.2995223   -2.5747249   -1.2752026 
    8610   0.86650729            0    1.2728413    1.2994152   -2.5765718   -1.2771565 
    8620   0.86645722            0    1.2727678    1.2993402   -2.5789107   -1.2795705 
    8630    0.8654404            0    1.2712741    1.2978153   -2.5803795   -1.2825642 
    8640   0.86399258            0    1.2691474    1.2956442   -2.5814917   -1.2858475 
    8650   0.86323977            0    1.2680415    1.2945153   -2.5835122   -1.2889969 
    8660   0.86325465            0    1.2680634    1.2945376   -2.5867623   -1.2922247 
    8670   0.86304196            0     1.267751    1.2942186   -2.5894292   -1.2952105 
    8680   0.86206526            0    1.2663163     1.292754   -2.5904431   -1.2976891 
    8690   0.86075306            0    1.2643887    1.2907862   -2.5906645   -1.2998783 
    8700   0.85958321            0    1.2626703    1.2890319   -2.5908278   -1.3017959 
    8710   0.85874279            0    1.2614358    1.2877716   -2.5908527   -1.3030811 
    8720   0.85846067            0    1.2610214    1.2873485    -2.591034   -1.3036855 
    8730   0.85886379            0    1.2616135    1.2879531   -2.5917993   -1.3038463 
    8740   0.85991007            0    1.2631504     1.289522   -2.5929216   -1.3033996 
    8750   0.86168417            0    1.2657565    1.2921825   -2.5946593   -1.3024768 
    8760   0.86404621            0    1.2692261    1.2957246   -2.5969343   -1.3012097 
    8770   0.86592919            0    1.2719921    1.2985483   -2.5981135   -1.2995651 
    8780   0.86610168            0    1.2722455     1.298807   -2.5961799   -1.2973729 
    8790   0.86454892            0    1.2699646    1.2964785   -2.5910627   -1.2945842 
    8800   0.86249453            0    1.2669468    1.2933977   -2.5848136   -1.2914159 
    8810   0.86175566            0    1.2658615    1.2922897   -2.5799867    -1.287697 
    8820   0.86370747            0    1.2687286    1.2952166   -2.5784815   -1.2832648 
    8830   0.86820888            0    1.2753408     1.301967   -2.5804966   -1.2785296 
    8840   0.87388284            0    1.2836755    1.3104756   -2.5840844   -1.2736088 
    8850    0.8796044            0    1.2920801    1.3190557   -2.5878146   -1.2687589 
    8860   0.88486397            0     1.299806     1.326943   -2.5916326   -1.2646897 
    8870   0.88898066            0    1.3058532    1.3331163   -2.5946129   -1.2614965 
    8880   0.89131977            0    1.3092892    1.3366241   -2.5956503   -1.2590263 
    8890   0.89187545            0    1.3101054    1.3374574   -2.5945096   -1.2570522 
    8900   0.89129464            0    1.3092523    1.3365864   -2.5922913    -1.255705 
    8910   0.89037753            0    1.3079051    1.3352111   -2.5900394   -1.2548283 
    8920   0.88940499            0    1.3064765    1.3337527   -2.5879139   -1.2541613 
    8930   0.88837767            0    1.3049674    1.3322121   -2.5860693   -1.2538572 
    8940   0.88758014            0    1.3037959    1.3310161   -2.5846723   -1.2536562 
    8950   0.88740869            0    1.3035441     1.330759   -2.5845578   -1.2537988 
    8960   0.88743169            0    1.3035778    1.3307935   -2.5847744   -1.2539809 
    8970   0.88629689            0    1.3019109    1.3290918   -2.5836379   -1.2545461 
    8980   0.88334031            0    1.2975679    1.3246581   -2.5797294   -1.2550714 
    8990   0.88004899            0    1.2927332    1.3197224   -2.5754473   -1.2557249 
    9000   0.87854265            0    1.2905204    1.3174635   -2.5739879   -1.2565244 
    9010   0.87892531            0    1.2910825    1.3180373   -2.5755422   -1.2575049 
    9020   0.87984842            0    1.2924385    1.3194216   -2.5782698   -1.2588482 
    9030   0.87998811            0    1.2926437    1.3196311   -2.5799139   -1.2602828 
    9040   0.87868552            0    1.2907303    1.3176777   -2.5797144   -1.2620367 
    9050    0.8762562            0    1.2871618    1.3140347    -2.577738   -1.2637032 
    9060   0.87422168            0    1.2841732    1.3109838   -2.5765505   -1.2655667 
    9070   0.87367086            0    1.2833641    1.3101577   -2.5774857    -1.267328 
    9080   0.87440918            0    1.2844487    1.3112649   -2.5802351   -1.2689702 
    9090   0.87528036            0    1.2857284    1.3125714   -2.5832827   -1.2707113 
    9100   0.87520083            0    1.2856115    1.3124521   -2.5849025   -1.2724504 
    9110   0.87421203            0    1.2841591    1.3109693   -2.5850634   -1.2740941 
    9120   0.87276673            0     1.282036    1.3088019   -2.5847259    -1.275924 
    9130   0.87166579            0    1.2804188     1.307151   -2.5850116   -1.2778606 
    9140   0.87127145            0    1.2798395    1.3065596    -2.586463   -1.2799035 
    9150   0.87080133            0     1.279149    1.3058546   -2.5876554   -1.2818008 
    9160   0.86937371            0    1.2770519    1.3037137   -2.5873348   -1.2836211 
    9170   0.86727272            0    1.2739657    1.3005631   -2.5863318   -1.2857687 
    9180   0.86558031            0    1.2714796    1.2980252    -2.585444   -1.2874188 
    9190   0.86479746            0    1.2703297    1.2968512    -2.585957   -1.2891058 
    9200   0.86419503            0    1.2694447    1.2959478   -2.5867007   -1.2907529 
    9210   0.86273702            0     1.267303    1.2937613    -2.586017   -1.2922556 
    9220   0.85996532            0    1.2632316    1.2896049   -2.5832902   -1.2936853 
    9230   0.85693055            0    1.2587737     1.285054   -2.5801321   -1.2950782 
    9240   0.85554359            0    1.2567364    1.2829741    -2.578965   -1.2959909 
    9250   0.85611757            0    1.2575795    1.2838348   -2.5802577   -1.2964229 
    9260   0.85733027            0    1.2593609    1.2856534   -2.5823423   -1.2966889 
    9270   0.85830119            0    1.2607871    1.2871094   -2.5837065   -1.2965971 
    9280   0.85876328            0    1.2614659    1.2878023   -2.5838325   -1.2960302 
    9290   0.85834578            0    1.2608526    1.2871762   -2.5824368   -1.2952605 
    9300   0.85741867            0    1.2594907    1.2857859   -2.5799715   -1.2941856 
    9310   0.85667505            0    1.2583984    1.2846708   -2.5773586   -1.2926878 
    9320   0.85630698            0    1.2578577    1.2841189   -2.5752394   -1.2911205 
    9330   0.85675154            0    1.2585108    1.2847855   -2.5740524   -1.2892669 
    9340   0.85844817            0     1.261003    1.2873298   -2.5741171   -1.2867873 
    9350   0.86101438            0    1.2647726    1.2911781   -2.5753814   -1.2842033 
    9360   0.86368424            0    1.2686944    1.2951818   -2.5762407   -1.2810588 
    9370    0.8659436            0    1.2720133      1.29857   -2.5762794   -1.2777095 
    9380   0.86761217            0    1.2744643    1.3010721   -2.5753704   -1.2742982 
    9390   0.86917413            0    1.2767587    1.3034144   -2.5744812   -1.2710668 
    9400   0.87164941            0    1.2803947    1.3071264   -2.5751089   -1.2679825 
    9410   0.87494422            0    1.2852346    1.3120673    -2.577315   -1.2652478 
    9420   0.87720749            0    1.2885592    1.3154613   -2.5785757   -1.2631144 
    9430   0.87715439            0    1.2884812    1.3153817   -2.5768154   -1.2614337 
    9440   0.87543834            0    1.2859604    1.3128083   -2.5727527   -1.2599445 
    9450   0.87357271            0    1.2832199    1.3100106   -2.5686109   -1.2586004 
    9460   0.87260194            0    1.2817939    1.3085548   -2.5661468    -1.257592 
    9470   0.87298148            0    1.2823515     1.309124   -2.5658736   -1.2567496 
    9480   0.87477448            0    1.2849853    1.3118127   -2.5677558   -1.2559431 
    9490   0.87755456            0     1.289069    1.3159817   -2.5710583   -1.2550765 
    9500   0.88062653            0    1.2935815    1.3205885   -2.5749206   -1.2543321 
    9510   0.88339399            0    1.2976467    1.3247386   -2.5784251   -1.2536865 
    9520    0.8855032            0     1.300745    1.3279015   -2.5812373   -1.2533358 
    9530   0.88681592            0    1.3026733    1.3298701   -2.5829537   -1.2530836 
    9540   0.88735952            0    1.3034718    1.3306853   -2.5837724   -1.2530871 
    9550   0.88699874            0    1.3029419    1.3301443    -2.583632   -1.2534877 
    9560   0.88517167            0     1.300258    1.3274044    -2.581459   -1.2540546 
    9570    0.8818298            0    1.2953491    1.3223929   -2.5770053   -1.2546124 
    9580   0.87881469            0    1.2909201    1.3178714   -2.5732627   -1.2553912 
    9590   0.87835733            0    1.2902482    1.3171856   -2.5736146    -1.256429 
    9600   0.87996369            0    1.2926079    1.3195945   -2.5770445     -1.25745 
    9610   0.88146274            0    1.2948099    1.3218425   -2.5802357   -1.2583932 
    9620   0.88159791            0    1.2950084    1.3220452   -2.5815174   -1.2594723 
    9630   0.88146601            0    1.2948147    1.3218474     -2.58225   -1.2604027 
    9640    0.8826357            0    1.2965329    1.3236014   -2.5848129   -1.2612115 
    9650   0.88404839            0     1.298608    1.3257199   -2.5880792   -1.2623593 
    9660   0.88431708            0    1.2990027    1.3261228   -2.5893644   -1.2632416 
    9670   0.88344532            0    1.2977221    1.3248155   -2.5889468   -1.2641313 
    9680   0.88188007            0    1.2954229    1.3224683   -2.5874042   -1.2649359 
    9690    0.8798002            0    1.2923677    1.3193493   -2.5850842   -1.2657349 
    9700   0.87725568            0      1.28863    1.3155336   -2.5819352   -1.2664017 
    9710   0.87477035            0    1.2849792    1.3118066   -2.5784268   -1.2666203 
    9720   0.87335844            0    1.2829052    1.3096892   -2.5763562    -1.266667 
    9730   0.87386172            0    1.2836445     1.310444   -2.5767376   -1.2662937 
    9740   0.87599642            0    1.2867802    1.3136452   -2.5791834   -1.2655382 
    9750   0.87867368            0    1.2907129      1.31766   -2.5818678   -1.2642078 
    9760   0.88128213            0    1.2945446    1.3215716   -2.5841885   -1.2626169 
    9770   0.88363078            0    1.2979946    1.3250937   -2.5857096    -1.260616 
    9780   0.88534299            0    1.3005097    1.3276613   -2.5857922   -1.2581309 
    9790   0.88618009            0    1.3017393    1.3289166   -2.5842524   -1.2553358 
    9800   0.88649005            0    1.3021946    1.3293814   -2.5813979   -1.2520165 
    9810   0.88693829            0    1.3028531    1.3300536   -2.5783701   -1.2483165 
    9820   0.88802874            0    1.3044549    1.3316889   -2.5760109   -1.2443221 
    9830   0.88950042            0    1.3066167    1.3338958   -2.5739572   -1.2400614 
    9840    0.8904797            0    1.3080552    1.3353643   -2.5710788   -1.2357145 
    9850   0.89079416            0    1.3085171    1.3358359   -2.5672194   -1.2313835 
    9860   0.89172829            0    1.3098893    1.3372367   -2.5643736   -1.2271369 
    9870   0.89437153            0     1.313772    1.3412005    -2.564368   -1.2231675 
    9880    0.8978239            0    1.3188433    1.3463777   -2.5659466   -1.2195689 
    9890   0.90081855            0    1.3232423    1.3508685   -2.5674109   -1.2165425 
    9900   0.90325916            0    1.3268274    1.3545284   -2.5687562   -1.2142278 
    9910   0.90525294            0    1.3297561    1.3575183   -2.5698665   -1.2123482 
    9920   0.90625789            0    1.3312323    1.3590253   -2.5703612   -1.2113359 
    9930   0.90538518            0    1.3299503    1.3577166   -2.5685226    -1.210806 
    9940   0.90282781            0    1.3261937    1.3538815   -2.5645326   -1.2106511 
    9950   0.90046748            0    1.3227266     1.350342   -2.5613874   -1.2110454 
    9960    0.9002029            0    1.3223379    1.3499452   -2.5615506   -1.2116053 
    9970    0.9018856            0    1.3248097    1.3524686   -2.5648405   -1.2123719 
    9980   0.90406636            0    1.3280131    1.3557389   -2.5692566   -1.2135177 
    9990   0.90565722            0    1.3303499    1.3581245   -2.5730729   -1.2149484 
   10000    0.9064614            0    1.3315312    1.3593305   -2.5760864   -1.2167559 
Loop time of 7.37691 on 8 procs for 10000 steps with 3760 atoms

Performance: 117122.207 tau/day, 1355.581 timesteps/s
86.1% CPU use with 8 MPI tasks x no OpenMP threads

MPI task timing breakdown:
Section |  min time  |  avg time  |  max time  |%varavg| %total
---------------------------------------------------------------
Pair    | 2.7003     | 3.0825     | 3.7123     |  18.0 | 41.79
Neigh   | 0.16339    | 0.19068    | 0.23237    |   5.4 |  2.58
Comm    | 1.9703     | 2.6113     | 2.9407     |  19.6 | 35.40
Output  | 0.15969    | 0.17764    | 0.28949    |  10.0 |  2.41
Modify  | 0.73095    | 0.85762    | 0.95133    |   9.7 | 11.63
Other   |            | 0.4571     |            |       |  6.20

Nlocal:    470 ave 531 max 386 min
Histogram: 1 0 1 1 0 1 0 1 1 2
Nghost:    1562.62 ave 1609 max 1516 min
Histogram: 1 0 1 1 1 2 0 0 1 1
Neighs:    17810.8 ave 22408 max 14023 min
Histogram: 1 1 1 1 0 1 2 0 0 1

Total # of neighbors = 142486
Ave neighs/atom = 37.8952
Neighbor list builds = 90
Dangerous builds = 0
Total wall time: 0:00:20
