LAMMPS data file via write_data, version 7 Aug 2019, timestep = 0

3760 atoms
3 atom types

-7.2062994740158999e+00 8.7937005259841001e+00 xlo xhi
-7.2062994740158999e+00 8.7937005259841001e+00 ylo yhi
-1.2000000000000000e+01 1.2000000000000000e+01 zlo zhi

Masses

1 1
2 1
3 1

Atoms # atomic

1 1 2.5657865170512828e-01 -1.7170216384167603e-01 -8.0289989328146909e+00 0 0 0
2 1 -1.6099162882973683e+00 2.4365610901100077e-01 -6.4046283701456286e+00 0 0 0
3 1 -3.4213095310072279e+00 -8.3102713577667586e-01 -2.6134627557422334e+00 0 0 0
4 1 -1.2805892285889175e+00 1.5054008714332401e-01 -4.7633792342447574e+00 0 0 0
5 1 -1.1513896614048331e+00 -2.8931590342134124e+00 -6.6832441634886175e+00 0 0 0
6 1 -2.1946936061742548e+00 -4.8392652335604973e+00 -5.9687032159272126e+00 0 0 0
7 1 -6.4548901443215678e+00 5.0174126542366082e-01 -1.3516255148461216e+00 0 0 0
8 1 -1.0064424580255249e+00 2.2657231927181165e-01 -4.0471371701206715e+00 0 0 0
9 1 2.1861858163709247e-01 4.9797811135482384e-01 -4.5373217363549969e+00 0 0 0
10 1 -3.5036107574163182e+00 -2.9448725790850627e-01 -2.2318587509132257e+00 0 0 0
11 1 3.7472458180686097e-01 -6.5182860400883014e+00 -1.2481221609041668e+00 0 0 0
12 1 -3.4750259681249811e+00 -6.4715168069126578e+00 -7.3996130923738761e+00 0 0 0
13 1 4.6262924655522930e-01 -4.1156345938260639e+00 -9.8873649537038819e+00 0 0 0
14 1 -5.4808676542621892e+00 -6.2868018217258355e+00 -4.2171644765032292e+00 0 0 0
15 1 6.7364837738730809e-01 -5.8488014476757311e-01 -1.4573353768593336e+00 0 0 0
16 1 -6.9390149568176724e+00 -8.1376375809613055e-01 -1.0011064126161422e+00 0 0 0
17 1 -6.7989181004635402e-01 -9.1079721453363938e-01 -5.9559721667114518e+00 0 0 0
18 1 3.7417801473733370e-01 -4.9813930363143299e-01 -4.0239460552222770e+00 0 0 0
19 1 -3.8167568810596286e-01 -6.8712621876335156e+00 -3.8961259433515956e+00 0 0 0
20 1 -1.2672738611713994e+00 -4.1525718368550244e+00 -6.3966605236738268e+00 0 0 0
21 1 5.5116647693584664e-01 -6.2877520403448068e+00 -5.2220438771052491e+00 0 0 0
22 1 -6.1057788550326242e+00 -1.6164166254386299e+00 -3.8934708265091622e+00 0 0 0
23 1 4.2724574865804055e-01 -5.7604042652525891e+00 -8.0347431535063052e+00 0 0 0
24 1 -1.6597677184581654e+00 -1.2628595326417544e+00 -8.4034907810406256e+00 0 0 0
25 1 -3.1273435437164983e+00 -2.1920077956479433e+00 -7.5160908314940009e+00 0 0 0
26 1 -5.2537825473926212e+00 -6.4485786428880605e+00 -3.4433193055183153e-01 0 0 0
27 1 -5.4892368188880702e-01 -4.6428910029689359e+00 -5.0549928262154538e+00 0 0 0
28 1 7.7385800256179493e-01 -4.2609514529458714e+00 -2.1619297155001806e+00 0 0 0
29 1 -6.1485262586767053e+00 -5.3759543927542586e+00 -9.6502175553004346e+00 0 0 0
30 1 -6.2009251156741243e+00 -4.0781744554604025e+00 -1.8193046244882538e+00 0 0 0
31 1 -3.8981906868072524e-01 -6.8803642415233295e+00 -5.0998704671393478e+00 0 0 0
32 1 -7.0686532122649393e+00 -5.1430982760355892e+00 -2.2930181549363855e+00 0 0 0
33 1 -1.5348321858972795e+00 5.9308803969864599e-02 -1.4593925101027789e+00 0 0 0
34 1 -5.6932097963300912e+00 -1.6408071632138599e+00 -3.0539274369617591e+00 0 0 0
35 1 -1.1793696425250859e+00 -1.7574180278222293e+00 -7.7351637686300734e-01 0 0 0
36 1 5.8665666403390304e-01 -2.8498569699339580e+00 -9.4775866155873913e+00 0 0 0
37 1 -3.4964952030560346e+00 -2.3537609167534015e+00 -3.1193611273166546e+00 0 0 0
38 1 -2.2960887298560273e+00 -5.8815678633232480e+00 -6.3939274551318626e+00 0 0 0
39 1 -6.8577555698923600e+00 -3.6542003657953113e+00 -9.7396120241561963e+00 0 0 0
40 1 -3.0802131307393896e+00 -7.9872953821979209e-01 -8.6649796733003939e+00 0 0 0
41 1 -5.6606191238853913e+00 -1.3161564497226967e+00 -6.5484916868379770e+00 0 0 0
42 1 -1.1432877754021211e+00 -3.5814562527765177e+00 -1.7082700187844537e+00 0 0 0
43 1 -5.1585277706561259e+00 -2.1629908042756760e+00 -6.0864322521194962e+00 0 0 0
44 1 -1.0211871930734384e+00 -4.2873980467662030e+00 -6.7721474714447503e+00 0 0 0
45 1 7.9027329066990148e-01 -2.0825947522834891e+00 -8.9065889357154209e+00 0 0 0
46 1 -1.4301508832957026e+00 -4.4927773571581193e+00 -6.7459598447875866e+00 0 0 0
47 1 -8.8639638100623230e-01 -4.5968412615972989e+00 -7.1110748393047016e+00 0 0 0
48 1 -4.1289026036159591e+00 -2.0216097902866803e+00 -8.1495358180950994e-01 0 0 0
49 1 2.2269311517626456e-02 2.2278107493551325e-01 -7.8537775286723752e+00 0 0 0
50 1 -6.0235296382219783e-01 -5.4571634905241613e+00 -4.8026917664346715e+00 0 0 0
51 1 -4.4365153130168871e+00 -1.9265955262864081e+00 -4.9496740591477817e-01 0 0 0
52 1 -5.5465345918593538e+00 1.0883958588729037e-01 -6.5659858549786669e+00 0 0 0
53 1 -4.2466679449363660e+00 -4.4847697403086002e+00 -9.7350879757362829e+00 0 0 0
54 1 -3.6558899313002060e+00 -4.9922510897465422e+00 -7.7688437596749722e+00 0 0 0
55 1 -7.7959504566015347e-01 -3.9301360339210607e+00 -9.3837524202576610e+00 0 0 0
56 1 -4.3172383301014676e+00 -4.4698742369282458e+00 -4.6533271226348916e-01 0 0 0
57 1 -5.1432021399234440e+00 -3.0922061383717061e+00 -6.6816596950784604e+00 0 0 0
58 1 -1.3306913397803859e+00 -5.5691716369971855e+00 -7.7775853256590644e-01 0 0 0
59 1 -5.9473835299291764e+00 -5.6859556456142535e-01 -1.4816029609560974e+00 0 0 0
60 1 -4.5732158808982870e+00 -3.3018193325527276e+00 -2.4679580249208755e-01 0 0 0
61 1 -5.6073969890869444e+00 -3.9834058591534265e+00 -6.9298795503237649e+00 0 0 0
62 1 -2.4887615171629536e+00 -5.1913161654447446e+00 -8.1645257948732581e+00 0 0 0
63 1 -5.7866559974469389e+00 -5.9422635104352723e+00 -8.0901669050055407e+00 0 0 0
64 1 -2.5158716346819192e+00 -4.6420770862300662e+00 -7.0631090631071052e+00 0 0 0
65 1 -5.2824481165607420e+00 -1.6292164829867941e+00 -6.8383203339010112e+00 0 0 0
66 1 7.1755115018384608e-02 -4.4157905586858757e+00 -4.9287305655557336e+00 0 0 0
67 1 -3.9672239673916265e+00 -6.6163766167751996e+00 -9.5709612497924645e+00 0 0 0
68 1 -7.7332754546738425e-01 -5.0363566121500334e+00 -2.7351941227611132e+00 0 0 0
69 1 -1.7377239108567375e+00 -3.7308304100817109e+00 -3.6706785828204254e+00 0 0 0
70 1 -6.4884394759193489e+00 -7.2879435989434338e-01 -2.7260165162040000e+00 0 0 0
71 1 -6.6272312710983030e+00 -6.8386764081494453e+00 -3.5772913385076874e+00 0 0 0
72 1 -5.7631488762782705e+00 -6.2218643530405302e+00 -8.7541340937624383e+00 0 0 0
73 1 -3.6530186272910563e+00 -2.3531430300030385e+00 -9.4607814957670779e+00 0 0 0
74 1 -5.1949617539197668e+00 -6.2569685556466972e+00 -4.7434985147526012e+00 0 0 0
75 1 -6.3228091402388094e+00 2.6745367802205244e-01 -3.5193152276423412e-01 0 0 0
76 1 -1.9682629522615462e+00 -7.9413342664344366e-01 -7.0664975499112614e+00 0 0 0
77 1 -3.7915549617744704e+00 -4.1694971683120725e+00 -5.3639949790034436e-01 0 0 0
78 1 -5.4120702769291231e+00 -5.6880410100925509e+00 -8.4223830878838815e+00 0 0 0
79 1 -5.6826622797309962e+00 -6.8442893704135352e+00 -7.6535755571227408e+00 0 0 0
80 1 3.6963790667128293e-01 -7.7223819965529827e-01 -3.0656653703496159e+00 0 0 0
81 1 -4.5198311241985234e+00 -3.2358824465647302e+00 -2.6913337468594936e+00 0 0 0
82 1 2.9346302101915622e-01 -3.7143855376183095e+00 -1.5163574840484095e-01 0 0 0
83 1 -3.0620281838688346e-01 -5.2159716238751486e-01 -2.5672415981847987e+00 0 0 0
84 1 -5.4040037675274295e+00 -6.9709127619619329e+00 -6.7032002083506441e+00 0 0 0
85 1 -1.2465110746336805e-01 -5.6481859480640306e+00 -7.4137870675948392e+00 0 0 0
86 1 -2.2788844571572060e+00 -5.6490466205467991e+00 -6.4392211551029330e+00 0 0 0
87 1 -6.1212482155986638e+00 -3.1028686006001687e+00 -2.3787179833178964e+00 0 0 0
88 1 -1.1787502546059052e+00 -6.5536647441586506e+00 -3.3054271961121948e+00 0 0 0
89 1 -2.8534543012599478e-01 2.8363943600165786e-01 -2.5606952945518744e+00 0 0 0
90 1 6.2835269034373198e-02 -2.2686472718063513e+00 -1.6556518672293290e+00 0 0 0
91 1 -2.5555434266568877e+00 -2.3287079528322128e+00 -9.3157676324787406e+00 0 0 0
92 1 -5.4561181247098576e+00 -8.9154443411971673e-01 -3.6724695487285430e-01 0 0 0
93 1 -3.9406181859476987e+00 -4.3569263514577194e-01 -3.6208321590073558e+00 0 0 0
94 1 -1.1334370631311197e+00 -5.2898293282349540e+00 -5.8287627044267785e+00 0 0 0
95 1 -5.3140169037373708e+00 1.4659029978938420e-02 -8.4565942261631584e+00 0 0 0
96 1 -6.8403841222188735e+00 -6.1196932381391900e-01 -2.7210028389100849e-01 0 0 0
97 1 -4.8282650012669519e+00 -1.7359336962311733e+00 -5.8556553050203508e+00 0 0 0
98 1 -1.4944351240345508e+00 -5.2707487998619360e+00 -4.0477226646839277e+00 0 0 0
99 1 -5.7826424031009207e+00 6.8901876702612164e-01 -1.5239510552603512e+00 0 0 0
100 1 -3.2442388798159181e+00 -5.2392894705513076e+00 -8.6294210230137320e+00 0 0 0
101 1 7.6926787441776412e-01 -5.3757377995853366e+00 -4.8623578971542223e+00 0 0 0
102 1 -2.4378072660756311e+00 -3.5598868570764441e-01 -1.7401319983136521e+00 0 0 0
103 1 -3.9009726148601538e+00 -3.1897562234741992e+00 -3.0567634725276216e+00 0 0 0
104 1 -1.4564994762837520e+00 -6.3508949608417318e+00 -1.0160259767510116e+00 0 0 0
105 1 -1.9321387125243916e+00 -1.9060151249154345e+00 -5.5587662176968369e+00 0 0 0
106 1 -5.4345614181348889e-01 -3.9877418011792152e+00 -2.7772324871165832e+00 0 0 0
107 1 -5.3322181718057049e-01 7.5125809010925870e-01 -5.7042720521354449e+00 0 0 0
108 1 -6.4784892687282314e+00 -7.6495631295756272e-01 -2.0972852092689296e+00 0 0 0
109 1 -4.7105360703713703e+00 1.1527624373052348e-01 -4.2816535543099299e+00 0 0 0
110 1 -4.7957868173498284e+00 -3.3018776657070878e+00 -1.5362684016750521e+00 0 0 0
111 1 -6.6099375443160842e+00 -5.1027003856976147e+00 -9.2850327860959965e+00 0 0 0
112 1 -5.9432306384464040e+00 -6.8024457836937771e+00 -2.6880200638845650e+00 0 0 0
113 1 -3.0244589773276624e+00 -6.5292405362997865e+00 -3.4006828690882234e+00 0 0 0
114 1 -7.1788792660021841e+00 -2.5438476079646675e+00 -5.0450494210445553e+00 0 0 0
115 1 -2.0571326419685025e+00 -4.2096598778955210e+00 -8.3456408224746781e+00 0 0 0
116 1 -3.5456135034357321e+00 -6.7448638014642093e+00 -9.8203154838738573e+00 0 0 0
117 1 -3.1317315168200039e+00 9.0825623797639921e-02 -4.7702450280870519e+00 0 0 0
118 1 -7.7866894487606242e-01 -3.5714596297287806e+00 -7.2979481459119988e-01 0 0 0
119 1 -5.4895723940841279e+00 -5.2436926887791824e-01 -3.8455215160946929e+00 0 0 0
120 1 -4.7713030867311250e+00 -2.3739029555865043e+00 -8.3654214806693705e+00 0 0 0
121 1 -2.5548948438365864e+00 -6.6342759660417761e+00 -5.2416681662395916e+00 0 0 0
122 1 -5.4409813509278866e+00 -4.9948785387945538e+00 -5.8494257255687501e+00 0 0 0
123 1 -4.7053752077560365e+00 -4.3839026244346933e+00 -3.5982825810080499e-02 0 0 0
124 1 -4.2247689296212503e+00 -1.3792067155310077e+00 -2.9431295129205637e-01 0 0 0
125 1 -1.9292652063289086e+00 7.7010508051627102e-01 -9.0856617032949174e+00 0 0 0
126 1 -2.2794571813852933e+00 -6.8523247987726243e-02 -7.2268330665430209e+00 0 0 0
127 1 -6.5493099098285867e-01 -7.1706964868269285e+00 -2.9848465663310355e+00 0 0 0
128 1 -1.5903008552371034e+00 -4.6183488754670066e+00 -2.5435979536471880e+00 0 0 0
129 1 1.4760766715271156e-01 -6.8911026543968115e+00 -2.4758414889107652e+00 0 0 0
130 1 -1.6681161360343433e+00 -4.7180184693211116e+00 -5.7711047752625797e+00 0 0 0
131 1 -5.3032465414596057e+00 -1.4434558558272537e+00 -5.4162927462795274e-01 0 0 0
132 1 -2.0081922584177034e+00 -2.8088051364700455e+00 -2.0139841698175225e+00 0 0 0
133 1 -6.4702705747970990e+00 5.0993732144577386e-01 -1.7524687115813009e-01 0 0 0
134 1 -3.6892067587557897e+00 -2.3150895971478898e+00 -8.2777611437615768e+00 0 0 0
135 1 -2.8964868918108788e+00 2.0937490804744741e-01 -4.2012843928305816e+00 0 0 0
136 1 -5.8170997931330337e+00 -5.9695549009337068e-01 -8.3866158865329883e+00 0 0 0
137 1 4.8888688429106075e-01 -3.7862019141454799e+00 -7.6750728011480867e+00 0 0 0
138 1 -4.0013430350418275e+00 -2.2161666011083394e+00 -1.5540322342673463e+00 0 0 0
139 1 -2.2408294098374792e+00 -4.7224442265605333e+00 -3.6038510657864862e+00 0 0 0
140 1 3.3599421386750539e-01 -3.5887026141725498e+00 -1.8913522883743763e+00 0 0 0
141 1 -5.6536684077747266e+00 -6.1458665699040269e+00 -8.7993977585804632e+00 0 0 0
142 1 -4.5704721620767135e+00 -2.8070355204298219e+00 -2.8960688099712453e+00 0 0 0
143 1 -6.5420865123032002e+00 -5.2028658963356040e+00 -3.4749350293888401e+00 0 0 0
144 1 -2.3201730362733270e+00 -9.6420020453344080e-02 -3.8937027817097034e+00 0 0 0
145 1 -7.1522610217883553e-01 -1.7285655985411656e+00 -2.9815542292695270e+00 0 0 0
146 1 -1.4726203228739392e+00 -3.5805730698424609e+00 -2.1852353737620795e+00 0 0 0
147 1 -4.0956983992266665e+00 -6.5916271580327184e+00 -2.4764445389045608e+00 0 0 0
148 1 -9.4706141702013813e-01 -5.3720367882407860e+00 -3.0503460080597300e+00 0 0 0
149 1 -6.9122331208438998e+00 -6.8804307673773248e+00 -6.5704452509854203e+00 0 0 0
150 1 -5.4768856127852938e+00 -1.8582861560406716e-01 -2.9862794573354989e-01 0 0 0
151 1 -7.8138899196480871e-01 -3.6683926282322146e+00 -3.4640065550170878e+00 0 0 0
152 1 -3.1411060470122942e+00 -5.4039085778461882e+00 -7.5862113095755745e+00 0 0 0
153 1 -6.4734218680338005e+00 -6.8349496857483896e+00 -1.1969285137937078e+00 0 0 0
154 1 -2.3427722335463779e+00 2.3635826177309482e-01 -7.7258212574412219e+00 0 0 0
155 1 -5.5928151591797457e+00 -2.2073821931242614e+00 -7.3719496826510644e+00 0 0 0
156 1 -3.1010308864909586e-01 -5.2482415633409705e+00 -6.5182285832791722e+00 0 0 0
157 1 -5.8678420395297088e+00 -1.8691201341239179e+00 -9.9834695551467458e+00 0 0 0
158 1 5.8293870081128141e-01 -4.5124669564551860e+00 -1.9907029215203149e+00 0 0 0
159 1 -5.3157805434262624e+00 7.8576572681087153e-01 -2.9021833058922475e+00 0 0 0
160 1 -2.8620856044228535e+00 5.5243202597846253e-01 -8.1652872768069074e-01 0 0 0
161 1 -6.7817406578531614e+00 -3.4007295403333835e+00 -6.6878362543358634e+00 0 0 0
162 1 -7.0538721515277025e-01 -3.6356855656372091e+00 -4.6417089666434030e-01 0 0 0
163 1 -3.5860990563679005e+00 -2.9020756017013731e+00 -3.7867538322632921e+00 0 0 0
164 1 -7.3976358455461000e-01 -3.5599460897522128e+00 -6.2193970457741043e+00 0 0 0
165 1 -4.7878439773510113e+00 -6.6632610717386260e+00 -5.9664839301102255e+00 0 0 0
166 1 -6.1937611627814242e+00 -5.3240139799681474e+00 -1.4911678300663684e+00 0 0 0
167 1 -1.1676650080065514e+00 -2.7195188370111119e+00 -8.3124434753844714e+00 0 0 0
168 1 -1.4660533182589814e+00 3.4697717563865549e-01 -2.4601752462145754e+00 0 0 0
169 1 -3.0034243307694801e+00 -2.7448237352973148e+00 -7.6851248078444625e+00 0 0 0
170 1 -5.1432811495539807e+00 -4.4201209987863255e+00 -6.5446172405707692e-01 0 0 0
171 1 -4.5748528346846946e+00 -4.0150267267383466e-01 -7.8410314944763817e+00 0 0 0
172 1 -2.8088867943889682e+00 -2.5068367014488402e+00 -6.9073994629585185e+00 0 0 0
173 1 7.7395929605209890e-01 -2.5585117614033779e+00 -9.2007419556382768e+00 0 0 0
174 1 -5.7620344921032549e+00 -2.6987089975644407e+00 -8.3044419522883572e+00 0 0 0
175 1 -2.7474744383000393e+00 -4.3777321478982776e+00 -3.6356714617627075e+00 0 0 0
176 1 -3.1996356066534313e+00 -7.0075165540903406e-01 -2.8332739196872678e+00 0 0 0
177 1 -6.1211598803108949e+00 -1.6182174190557719e+00 -3.7005762633404586e+00 0 0 0
178 1 -1.6660680885832662e+00 -7.0908390709647584e-01 -7.0203002900911038e+00 0 0 0
179 1 -5.0782679568151758e+00 -6.5969527668448666e+00 -2.0069093918460013e-01 0 0 0
180 1 -6.9697330344574153e+00 -7.8312532713925798e-02 -3.6220299050314484e+00 0 0 0
181 1 -3.4722814208281645e+00 -5.9628088113636437e+00 -2.2504618448440272e+00 0 0 0
182 1 -1.2963214636417844e+00 -5.7540433881107358e+00 -7.4255669291250257e+00 0 0 0
183 1 -2.5655111592858599e+00 -2.5870960337828102e+00 -1.0650120261427993e+00 0 0 0
184 1 -4.0276413601174221e+00 -3.2294314001599940e+00 -8.8937799487698754e-02 0 0 0
185 1 -3.1845177745063120e+00 -5.1224378170482998e+00 -5.5871183497771240e+00 0 0 0
186 1 -2.3875105552546243e+00 -6.5719404619394979e+00 -7.2958776900991227e+00 0 0 0
187 1 -9.8413833247805638e-01 -5.0654764548293016e+00 -6.4384129719987566e+00 0 0 0
188 1 -1.9386517175478035e+00 -4.9259942352897310e+00 -3.1403787495290754e+00 0 0 0
189 1 1.3405245969254409e-01 -6.6189823271992871e+00 -7.1710041431575098e+00 0 0 0
190 1 -1.3478549393014161e+00 -5.1180987806320708e+00 -9.6713629456569272e+00 0 0 0
191 1 -5.3366763672736850e+00 -6.6545777445789867e-01 -2.6510104316524270e+00 0 0 0
192 1 -8.8989171097973419e-01 -2.5176542301676337e+00 -6.0322509594411828e+00 0 0 0
193 1 -6.6162846347801594e+00 -5.3341534972930145e+00 -5.6283656673637985e+00 0 0 0
194 1 1.4416309367963009e-01 -3.9588511204172279e+00 -4.1397094047347593e+00 0 0 0
195 1 -2.6703019339154066e+00 1.2509375326289884e-01 -7.2625385584600917e+00 0 0 0
196 1 -7.3263719628728996e-01 -5.4371342730249292e+00 -2.0505822412905204e+00 0 0 0
197 1 -2.7476067040186969e+00 -6.6007220813706455e+00 -3.5225659858074811e+00 0 0 0
198 1 -2.4316296519063441e+00 -2.9729236606119338e+00 -9.9052274878626818e+00 0 0 0
199 1 -3.4620340671828611e+00 -1.0048303089295425e+00 -4.5868977413451750e+00 0 0 0
200 1 -2.1785268818823074e+00 -6.8385205910747056e+00 -1.3290622743447678e-01 0 0 0
201 1 -3.0848367731853861e+00 -2.4767907579854809e+00 -2.7324334870709261e+00 0 0 0
202 1 -1.4761046914826732e+00 -1.3171583807750622e+00 -8.6964905814717017e+00 0 0 0
203 1 -6.4741385980173494e-01 -2.4806685177964054e+00 -8.4515254378558726e+00 0 0 0
204 1 -5.3795008970062934e+00 -5.7212537116638336e+00 -2.5995262677779074e+00 0 0 0
205 1 -5.5526178658292835e-01 -4.7233202789427029e+00 -2.9692626339240293e+00 0 0 0
206 1 -2.9463218586815714e+00 -1.0204422168044474e+00 -9.6929981464953148e+00 0 0 0
207 1 -4.7253718810482468e+00 -5.9294022182613215e+00 -3.7872858037181603e+00 0 0 0
208 1 4.0942375207151116e-01 -1.1687114147256485e+00 -7.2299343614047089e+00 0 0 0
209 1 -6.1138168280648024e+00 1.4606588888557592e-01 -3.6669293668432772e+00 0 0 0
210 1 -6.4274254816477594e-01 -1.4312055131311396e-03 -4.1362760281824862e+00 0 0 0
211 1 -7.1826593153012102e+00 -5.2499382806407064e+00 -4.0246945126097158e+00 0 0 0
212 1 -1.9150192771067545e+00 -3.0993540669953710e+00 -4.6888547831628724e+00 0 0 0
213 1 -8.9435332632715259e-01 -1.4725260041538517e+00 -3.1463389346126185e+00 0 0 0
214 1 -6.8756955498508177e+00 -1.0454540472838207e+00 -2.5873240607731613e+00 0 0 0
215 1 2.5474825957072156e-01 -5.2250381878681829e-01 -2.6091645251070918e+00 0 0 0
216 1 -8.8261657954168005e-01 -1.8949159429376170e+00 -2.0788144795591101e-01 0 0 0
217 1 -1.2227342885498951e+00 -6.8464901403125999e-01 -6.8793561388176663e+00 0 0 0
218 1 -2.3502016738093676e+00 -2.9798484461555592e+00 -2.9797750865015082e+00 0 0 0
219 1 -4.2419778188859691e-01 -6.8440171136215948e+00 -1.6352541240096343e+00 0 0 0
220 1 -6.2260987820654803e+00 -1.3956002225292812e+00 -2.6779061335501755e+00 0 0 0
221 1 -5.3575073788654803e+00 -1.0273816953919308e+00 -3.0923400694003043e+00 0 0 0
222 1 -2.7807582046366974e+00 -1.1449124295175981e+00 -1.1459320369856112e+00 0 0 0
223 1 -5.8054708826679988e+00 -2.8317504664514539e+00 -9.2276710454503412e+00 0 0 0
224 1 -3.9976766851188108e+00 -1.4210213410221506e+00 -4.6196714391092177e+00 0 0 0
225 1 -5.8987380764842596e+00 -4.1246311127155639e+00 -8.7582253286420482e+00 0 0 0
226 1 7.8225507358584956e-01 1.1925982201747232e-02 -8.8714690873732174e+00 0 0 0
227 1 -2.3168945543842074e+00 -5.8201728060806541e+00 -9.2370085880332660e+00 0 0 0
228 1 -5.5459092629937654e+00 -4.5875576441713157e+00 -1.8938116318983074e+00 0 0 0
229 1 -4.3816297203052095e+00 -7.0487067360753342e+00 -6.3632991799913805e+00 0 0 0
230 1 -2.9198819419937649e-01 -4.9172000272224246e+00 -8.7416622968118922e+00 0 0 0
231 1 -1.3703532962672025e+00 -3.0904974542073349e+00 -8.9106624847793316e+00 0 0 0
232 1 -5.8402439356937386e-01 -1.5348727316173418e+00 -1.3402253162768787e+00 0 0 0
233 1 -3.5316140774631037e+00 4.4899641025659776e-01 -7.2931253618063057e+00 0 0 0
234 1 -1.2074723300342587e+00 -2.6840032999867862e+00 -3.2304032487936327e+00 0 0 0
235 1 -1.1191344905105538e-02 4.8260911667005413e-01 -4.2737501926132246e+00 0 0 0
236 1 -6.3847694512703255e+00 -7.0711295955791407e+00 -2.0276129394898259e+00 0 0 0
237 1 3.3137010407650003e-01 -5.2746185015119407e+00 -9.5886864511243477e+00 0 0 0
238 1 -1.2161857650694508e-01 -2.9933658550815245e-01 -9.4277601686435570e+00 0 0 0
239 1 -3.5869960188987502e+00 -2.7710253836848207e+00 -6.8807472553480169e+00 0 0 0
240 1 -7.1011969233808614e-01 -7.1429322491573970e+00 -9.2476999197377356e+00 0 0 0
241 1 6.3029110266787480e-01 6.1177839848132987e-01 -8.9464259980928276e+00 0 0 0
242 1 -2.8385524818772963e+00 7.0983632474643255e-01 -1.3453346823087582e+00 0 0 0
243 1 -5.0239879795068703e+00 -6.6913425871026737e+00 -6.7171531248451917e+00 0 0 0
244 1 2.9713157312850580e-01 -2.8822281318439193e+00 -5.0522327027526837e+00 0 0 0
245 1 -7.0342308306226240e+00 -4.4455100262552154e+00 -1.8868449199417814e+00 0 0 0
246 1 6.7638806712842037e-01 -1.5781308793915638e-01 -1.0066374535703275e+00 0 0 0
247 1 -4.0124926407137700e+00 -7.1319954412464215e+00 -7.4861446197545831e+00 0 0 0
248 1 -2.3376929226351910e+00 -5.6334600980030896e+00 -1.8942714258536100e+00 0 0 0
249 1 4.9255552137223102e-01 -2.9526163869940536e+00 -1.0066006011360322e+00 0 0 0
250 1 -1.1224683058158620e+00 -3.4135188188899699e+00 -9.3988338482560749e+00 0 0 0
251 1 -6.9462384180719194e-01 -5.2112634347046685e+00 -9.1051438912307585e+00 0 0 0
252 1 -2.4575056597197431e-01 -3.3226555840734164e+00 -8.3864447234135397e-01 0 0 0
253 1 -3.5527335117355747e+00 -4.7604475047989876e+00 -3.6781879485017566e+00 0 0 0
254 1 -1.7387494711560194e+00 -5.7611228860954418e+00 -3.9200813667476551e+00 0 0 0
255 1 -8.8363650337690913e-01 -3.8304763676079139e+00 -6.3756969926765636e+00 0 0 0
256 1 -2.8578076202592202e+00 -3.5789855059263695e+00 -7.0916390871124522e+00 0 0 0
257 1 -2.5023891701805701e+00 -6.1367883222857547e+00 -8.1218983037964900e+00 0 0 0
258 1 -5.4165465782394140e+00 -4.8897397620766121e+00 -1.7239232415910450e+00 0 0 0
259 1 -4.7178066980666511e-01 -6.3574222975424455e-01 -5.7796122486608157e+00 0 0 0
260 1 -5.9013307862199023e+00 -2.0814052176147575e+00 -2.6115534978972530e+00 0 0 0
261 1 -3.6188413256202838e+00 -5.7746138619407512e+00 -2.1423167233086735e+00 0 0 0
262 1 -4.1020616626604625e+00 -7.0948993717241002e+00 -7.4659398000063089e+00 0 0 0
263 1 3.5866822882797678e-01 -2.6640200239181793e+00 -1.4938433987525492e+00 0 0 0
264 1 -4.9451248970364894e+00 -4.1875697467954822e+00 -3.6392365599233756e-02 0 0 0
265 1 -5.5975677322004671e+00 -6.0523795823136286e+00 -2.2403337118403677e+00 0 0 0
266 1 -5.0393454746720137e+00 -6.2976727693954047e+00 -4.5228585668480292e+00 0 0 0
267 1 -1.7837454415841680e+00 -1.6934241711968987e+00 -6.1693253443433553e+00 0 0 0
268 1 -1.1615325351165851e+00 -6.0951432934661440e+00 -7.5455272186293865e+00 0 0 0
269 1 6.8049864264488313e-01 -7.1028677528357820e+00 -3.6094934277280668e+00 0 0 0
270 1 -7.5149871687550363e-01 -3.1104218448047503e+00 -9.3455405995927467e+00 0 0 0
271 1 2.7612879100278587e-01 -6.1310994164576300e+00 -2.3668578790346428e+00 0 0 0
272 1 -5.1857645528346215e+00 -3.7426046577636973e+00 -3.9441016195081646e+00 0 0 0
273 1 -6.0779305235853336e+00 -4.9647936853186660e+00 -8.1434176807028358e-01 0 0 0
274 1 -2.8317173911705584e+00 -6.0631899592375795e+00 -1.2070925492826348e+00 0 0 0
275 1 -3.8873144357162390e+00 -1.7312314619327571e+00 -1.9112972598109845e+00 0 0 0
276 1 -1.8515779993072101e+00 -1.2827612711681828e+00 -8.3376377906359913e+00 0 0 0
277 1 -3.2053980414297083e+00 -6.3121960962046026e+00 -5.5655344648126208e+00 0 0 0
278 1 -2.0436034500471942e+00 -4.9190233666957806e+00 -9.0471509280834113e+00 0 0 0
279 1 -6.2423840420461865e+00 -1.3885741859812608e+00 -7.3651734541008125e+00 0 0 0
280 1 -4.5225724284042137e+00 -3.6900838095568438e+00 -2.9543456029865638e+00 0 0 0
281 1 -3.4323394467898578e+00 -3.7352280062438208e+00 -8.8091546244961982e-01 0 0 0
282 1 -7.0901772112976058e-01 -3.8284016248434187e+00 -5.1286007767210684e-01 0 0 0
283 1 -4.0403247425434596e+00 -3.5108471983523772e+00 -8.7306519545291827e-01 0 0 0
284 1 -6.4105776447267742e+00 1.5324772834636491e-01 -4.9101246310910796e+00 0 0 0
285 1 -7.0975835748668192e+00 -4.7741193573249205e+00 -5.8987588323181308e+00 0 0 0
286 1 6.2543744882272101e-02 -7.1682936961897443e+00 -9.8704089503131840e+00 0 0 0
287 1 -3.0441521454411644e+00 -2.9737285915808487e+00 -7.6984779991668084e+00 0 0 0
288 1 -5.9287665511576453e+00 -7.0053223057784582e+00 -7.3369150875773812e+00 0 0 0
289 1 -2.6352576718471941e+00 -3.9316731529000726e+00 -3.3622476148243283e+00 0 0 0
290 1 -1.5197136598136316e+00 -4.3507143664236017e+00 -6.3991721795868006e+00 0 0 0
291 1 -3.2025231119562427e+00 -3.6121548577075338e+00 -3.1052161488240593e-01 0 0 0
292 1 -5.3727593576738286e-02 2.7195297129061125e-01 -8.9364833705762692e-01 0 0 0
293 1 -4.6916461479523557e+00 -1.7340866142151414e+00 -5.0253303512117506e+00 0 0 0
294 1 -1.5606052999177678e-01 -1.3258687924659780e+00 -1.2428619578680316e+00 0 0 0
295 1 -6.2794191726116706e+00 -3.7973516541198205e-01 -6.6634837615599309e+00 0 0 0
296 1 -4.6568044372235118e-01 -4.5533387487947037e+00 -5.4744400714870727e+00 0 0 0
297 1 -6.3808114284945212e+00 -1.3738386986997453e+00 -1.6326240411180173e+00 0 0 0
298 1 -5.0390280341148417e+00 -9.6244932501581992e-01 -7.7420094039952421e+00 0 0 0
299 1 -9.2120828739662208e-02 -6.3385725033016991e+00 -8.6242527787686569e+00 0 0 0
300 1 -5.0870486756060735e+00 -2.1114987452972604e+00 -7.8383835022516468e+00 0 0 0
301 1 -2.7680386596203075e+00 -2.5571197528134793e-01 -5.0921236980204112e+00 0 0 0
302 1 -3.2902236389882877e+00 -2.5838637057538660e+00 -9.6133912352907434e+00 0 0 0
303 1 -4.1218165061532410e+00 -4.5759655265042962e+00 -5.6464294696442918e+00 0 0 0
304 1 -2.1294768634408836e+00 -3.5950322429276360e+00 -1.8097731619187503e+00 0 0 0
305 1 -5.3540057114104114e+00 -3.0000546741176093e+00 -9.6447561865880882e+00 0 0 0
306 1 -5.1901985027736774e+00 -2.2325039134097189e+00 -2.6954240876694326e+00 0 0 0
307 1 -6.1519824024792626e+00 -2.6381653862811705e+00 -9.9690019897972242e+00 0 0 0
308 1 -1.2842077252153619e+00 1.5966518255830042e-01 -3.0502945990535864e+00 0 0 0
309 1 -7.1346673730421495e+00 -4.5832368554534089e+00 -6.3814272994089070e+00 0 0 0
310 1 -1.5956576557881395e+00 -3.4122988926336548e+00 -2.4319828732088133e+00 0 0 0
311 1 -4.9576978939874934e+00 -2.6137368661024469e+00 -9.9689324851934487e+00 0 0 0
312 1 -5.5703135095559384e+00 -4.1796438161888254e+00 -4.8312204120826072e+00 0 0 0
313 1 -5.2302652012816253e+00 -6.5563288797899029e+00 -2.1969775446676545e+00 0 0 0
314 1 -5.4816516821634096e+00 -4.2576592835127620e+00 -9.3874959924200070e+00 0 0 0
315 1 -6.5005867428097064e+00 -7.2060158239191079e+00 -3.7298260041185767e+00 0 0 0
316 1 -5.2435658260883917e+00 -2.0054378968756890e+00 -3.3301979737962579e+00 0 0 0
317 1 -2.8920191301684870e+00 -7.3245253836067992e-01 -3.5911942522931817e+00 0 0 0
318 1 6.9782952335535242e-01 -4.7424456582746579e+00 -5.7417471314509152e+00 0 0 0
319 1 -6.1122938144078942e+00 -4.6692425274847711e+00 -7.5636739086190587e+00 0 0 0
320 1 -2.3466982148650954e+00 -4.9224118658487139e+00 -3.9509831992681050e+00 0 0 0
321 1 -6.9094223944250377e-01 -4.1597703874403935e+00 -5.5228698884709129e+00 0 0 0
322 1 -1.7884588425959169e+00 -4.8800576055723495e+00 -7.6968292136196190e+00 0 0 0
323 1 -6.5872339636438682e-02 -6.1629008918820656e+00 -5.3484062456285608e+00 0 0 0
324 1 -1.2968688237816313e+00 2.5277421549379042e-01 -4.8460362641355195e+00 0 0 0
325 1 -1.4854246152111727e-03 -3.6592827852589100e+00 -2.0880819075219712e+00 0 0 0
326 1 -4.1649513671340888e+00 3.5880072113815409e-01 -1.0970085538444145e+00 0 0 0
327 1 -1.0680526922400428e+00 -1.2282698910529533e+00 -3.7886583869292680e+00 0 0 0
328 1 -9.5319231533190774e-03 -2.0400884490973858e+00 -9.2914789352991995e+00 0 0 0
329 1 -1.7655334243443042e+00 2.6996009887458872e-01 -4.9467156245125068e+00 0 0 0
330 1 8.4418040478782430e-02 -4.4781949820150766e+00 -4.3980020817359922e+00 0 0 0
331 1 -5.8960204440113966e+00 -4.0682805633429222e+00 -3.1117287246099341e+00 0 0 0
332 1 -9.0963264718167736e-02 -2.0896934680614621e+00 -5.8259186967396728e+00 0 0 0
333 1 -1.3976984812449329e+00 -6.4920371544499185e+00 -1.0083055268080461e+00 0 0 0
334 1 -3.4448960510242976e-01 -5.3430435818971063e+00 -2.1464629155334380e+00 0 0 0
335 1 -4.0029778857756932e+00 7.1949606285221090e-01 -7.8138063558441617e+00 0 0 0
336 1 -5.8942039801744670e+00 -3.9515718041170445e+00 -3.2281486844775031e+00 0 0 0
337 1 -2.5358058041196090e+00 -5.1370743971314532e+00 -9.1332932464467795e+00 0 0 0
338 1 -1.1719851098689134e+00 7.0402653234253076e-01 -9.7726106270088859e+00 0 0 0
339 1 -5.8885277493094774e+00 2.1104349967479763e-01 -7.3165452374688096e+00 0 0 0
340 1 -4.0938517420697345e+00 -5.9674592694998019e+00 -5.0502916495549925e+00 0 0 0
341 1 -3.6341072070016063e+00 -3.8411911795584195e+00 -3.2299622396146699e+00 0 0 0
342 1 -4.1463063335000214e+00 -5.6064079454272635e+00 -3.8979882159726644e+00 0 0 0
343 1 -3.8618575228442360e+00 3.4671790537318969e-01 -8.1914254548919505e+00 0 0 0
344 1 -4.6110443012933588e+00 -4.1950300386737638e-01 -5.7439754510968815e+00 0 0 0
345 1 -1.5339393374187100e+00 -1.4088629071821401e-01 -6.8344973106097884e+00 0 0 0
346 1 -3.8938453839556191e+00 -5.0527822030913025e+00 -5.8280128873083807e+00 0 0 0
347 1 -2.3319249080427404e+00 7.1764313217888898e-02 -6.1264697444282792e+00 0 0 0
348 1 -8.7279726435813121e-01 -4.1309798672111118e+00 -9.0994266695805948e+00 0 0 0
349 1 -4.0618903496802492e+00 -1.0128189699822396e+00 -1.1787458002468316e+00 0 0 0
350 1 -5.1947900187907665e+00 -3.3706162425407844e+00 -1.0239817905351440e+00 0 0 0
351 1 -2.1057107198412233e+00 4.7875691213396365e-01 -9.4279348102528306e+00 0 0 0
352 1 -6.5472887632758106e+00 -1.3993011489020111e+00 -4.4880396940224054e+00 0 0 0
353 1 -2.2487638093021856e+00 -1.2192007637433502e+00 -3.3127662042680974e+00 0 0 0
354 1 -2.2364308223374705e+00 -6.8268814839912828e+00 -2.8468083370694934e+00 0 0 0
355 1 -2.9952712634072496e+00 -2.5729158444253182e+00 -7.6074966870283234e+00 0 0 0