LAMMPS data file. CGCMM style. atom_style full generated by VMD/TopoTools v1.7 on Tue Jan 04 10:29:29 AEDT 2022
 768 atoms
 512 bonds
 256 angles
 0 dihedrals
 0 impropers
 2 atom types
 1 bond types
 1 angle types
 0 dihedral types
 0 improper types
  -0.5930 20.5130  xlo xhi
  -0.5190 20.5230  ylo yhi
  -0.5410 20.5250  zlo zhi

# Pair Coeffs
#
# 1  HT
# 2  OT

# Bond Coeffs
#
# 1  

# Angle Coeffs
#
# 1  1HH-OH-2HH

 Masses

 1 1.008000 # HT
 2 15.999400 # OT

 Atoms # full

1 1 2 -0.847600 14.434000 17.405001 0.940000 # OT SPE
2 2 1 0.423800 15.332000 17.716999 1.079000 # HT SPE
3 3 1 0.423800 14.363000 17.010000 0.068000 # HT SPE
4 4 2 -0.847600 14.413000 3.235000 11.402000 # OT SPE
5 5 1 0.423800 13.590000 2.743000 11.353000 # HT SPE
6 6 1 0.423800 15.153000 2.625000 11.358000 # HT SPE
7 7 2 -0.847600 19.997000 1.153000 7.444000 # OT SPE
8 8 1 0.423800 19.483000 0.400000 7.144000 # HT SPE
9 9 1 0.423800 19.916000 1.869000 6.809000 # HT SPE
10 10 2 -0.847600 2.152000 4.267000 2.558000 # OT SPE
11 11 1 0.423800 2.458000 4.440000 3.451000 # HT SPE
12 12 1 0.423800 2.884000 4.364000 1.944000 # HT SPE
13 13 2 -0.847600 4.954000 10.103000 12.946000 # OT SPE
14 14 1 0.423800 5.537000 10.598000 13.526000 # HT SPE
15 15 1 0.423800 5.171000 10.300000 12.031000 # HT SPE
16 16 2 -0.847600 17.697001 2.874000 11.031000 # OT SPE
17 17 1 0.423800 17.559999 1.925000 11.095000 # HT SPE
18 18 1 0.423800 18.402000 3.136000 11.627000 # HT SPE
19 19 2 -0.847600 15.800000 9.313000 19.257000 # OT SPE
20 20 1 0.423800 16.625999 8.876000 19.478001 # HT SPE
21 21 1 0.423800 15.918000 9.839000 18.462999 # HT SPE
22 22 2 -0.847600 9.119000 8.405000 14.583000 # OT SPE
23 23 1 0.423800 9.859000 7.830000 14.374000 # HT SPE
24 24 1 0.423800 9.161000 8.656000 15.509000 # HT SPE
25 25 2 -0.847600 5.519000 2.033000 18.219000 # OT SPE
26 26 1 0.423800 5.597000 2.643000 18.955999 # HT SPE
27 27 1 0.423800 4.603000 1.986000 17.937000 # HT SPE
28 28 2 -0.847600 19.809000 2.873000 15.103000 # OT SPE
29 29 1 0.423800 19.641001 3.684000 14.617000 # HT SPE
30 30 1 0.423800 19.955000 2.153000 14.485000 # HT SPE
31 31 2 -0.847600 9.704000 18.530001 1.039000 # OT SPE
32 32 1 0.423800 9.083000 19.059999 1.545000 # HT SPE
33 33 1 0.423800 9.409000 18.473000 0.128000 # HT SPE
34 34 2 -0.847600 17.662001 6.019000 0.681000 # OT SPE
35 35 1 0.423800 16.948000 6.519000 0.277000 # HT SPE
36 36 1 0.423800 18.268000 5.719000 0.000000 # HT SPE
37 37 2 -0.847600 15.238000 13.662000 17.858999 # OT SPE
38 38 1 0.423800 14.410000 13.259000 18.128000 # HT SPE
39 39 1 0.423800 15.229000 14.595000 18.087999 # HT SPE
40 40 2 -0.847600 6.929000 0.495000 11.541000 # OT SPE
41 41 1 0.423800 7.087000 1.442000 11.512000 # HT SPE
42 42 1 0.423800 7.230000 0.146000 12.383000 # HT SPE
43 43 2 -0.847600 6.688000 19.712000 14.164000 # OT SPE
44 44 1 0.423800 7.111000 19.709000 15.026000 # HT SPE
45 45 1 0.423800 7.357000 19.760000 13.478000 # HT SPE
46 46 2 -0.847600 5.523000 13.008000 19.493999 # OT SPE
47 47 1 0.423800 5.469000 13.260000 18.569000 # HT SPE
48 48 1 0.423800 4.988000 13.607000 20.020000 # HT SPE
49 49 2 -0.847600 13.031000 7.700000 17.966000 # OT SPE
50 50 1 0.423800 13.666000 8.214000 17.461000 # HT SPE
51 51 1 0.423800 13.209000 7.802000 18.903999 # HT SPE
52 52 2 -0.847600 4.156000 4.456000 8.364000 # OT SPE
53 53 1 0.423800 3.273000 4.090000 8.460000 # HT SPE
54 54 1 0.423800 4.251000 5.218000 8.940000 # HT SPE
55 55 2 -0.847600 10.263000 8.230000 5.058000 # OT SPE
56 56 1 0.423800 9.642000 8.948000 4.908000 # HT SPE
57 57 1 0.423800 11.147000 8.589000 5.164000 # HT SPE
58 58 2 -0.847600 2.037000 7.910000 5.039000 # OT SPE
59 59 1 0.423800 1.969000 7.046000 4.626000 # HT SPE
60 60 1 0.423800 1.612000 8.566000 4.481000 # HT SPE
61 61 2 -0.847600 5.195000 18.066999 17.941999 # OT SPE
62 62 1 0.423800 5.021000 18.964001 17.648001 # HT SPE
63 63 1 0.423800 4.364000 17.615999 18.104000 # HT SPE
64 64 2 -0.847600 0.017000 13.200000 7.154000 # OT SPE
65 65 1 0.423800 0.878000 12.960000 7.505000 # HT SPE
66 66 1 0.423800 0.017000 13.089000 6.201000 # HT SPE
67 67 2 -0.847600 4.519000 7.799000 10.308000 # OT SPE
68 68 1 0.423800 3.627000 7.850000 9.956000 # HT SPE
69 69 1 0.423800 4.765000 6.879000 10.426000 # HT SPE
70 70 2 -0.847600 17.111000 10.698000 1.038000 # OT SPE
71 71 1 0.423800 17.391001 11.559000 0.718000 # HT SPE
72 72 1 0.423800 17.872999 10.216000 1.368000 # HT SPE
73 73 2 -0.847600 17.547001 10.348000 13.706000 # OT SPE
74 74 1 0.423800 17.584000 9.416000 13.477000 # HT SPE
75 75 1 0.423800 18.120001 10.517000 14.457000 # HT SPE
76 76 2 -0.847600 13.108000 5.502000 18.830999 # OT SPE
77 77 1 0.423800 14.028000 5.775000 18.796000 # HT SPE
78 78 1 0.423800 12.811000 5.266000 17.948999 # HT SPE
79 79 2 -0.847600 12.512000 17.819000 6.405000 # OT SPE
80 80 1 0.423800 12.683000 17.372999 7.238000 # HT SPE
81 81 1 0.423800 12.198000 17.181999 5.759000 # HT SPE
82 82 2 -0.847600 0.165000 19.518999 5.585000 # OT SPE
83 83 1 0.423800 0.019000 19.013000 6.388000 # HT SPE
84 84 1 0.423800 1.100000 19.719999 5.499000 # HT SPE
85 85 2 -0.847600 13.861000 12.530000 15.602000 # OT SPE
86 86 1 0.423800 13.416000 12.846000 14.812000 # HT SPE
87 87 1 0.423800 13.234000 12.062000 16.158001 # HT SPE
88 88 2 -0.847600 19.834000 5.513000 19.945999 # OT SPE
89 89 1 0.423800 20.013000 5.253000 19.039000 # HT SPE
90 90 1 0.423800 19.288000 6.303000 19.950001 # HT SPE
91 91 2 -0.847600 15.371000 7.821000 11.422000 # OT SPE
92 92 1 0.423800 14.560000 7.509000 11.832000 # HT SPE
93 93 1 0.423800 15.978000 7.085000 11.315000 # HT SPE
94 94 2 -0.847600 5.052000 1.841000 6.672000 # OT SPE
95 95 1 0.423800 5.292000 1.044000 7.151000 # HT SPE
96 96 1 0.423800 4.416000 1.624000 5.987000 # HT SPE
97 97 2 -0.847600 7.704000 3.124000 3.215000 # OT SPE
98 98 1 0.423800 8.339000 2.439000 2.994000 # HT SPE
99 99 1 0.423800 8.169000 3.941000 3.408000 # HT SPE
100 100 2 -0.847600 11.314000 9.072000 1.922000 # OT SPE
101 101 1 0.423800 10.477000 9.105000 1.453000 # HT SPE
102 102 1 0.423800 11.166000 8.761000 2.819000 # HT SPE
103 103 2 -0.847600 17.527000 10.202000 16.931000 # OT SPE
104 104 1 0.423800 18.320999 10.730000 16.822001 # HT SPE
105 105 1 0.423800 17.702000 9.300000 16.655001 # HT SPE
106 106 2 -0.847600 11.929000 12.433000 1.126000 # OT SPE
107 107 1 0.423800 12.559000 13.041000 1.520000 # HT SPE
108 108 1 0.423800 12.074000 11.550000 1.474000 # HT SPE
109 109 2 -0.847600 5.720000 12.777000 2.641000 # OT SPE
110 110 1 0.423800 6.392000 13.377000 2.971000 # HT SPE
111 111 1 0.423800 6.127000 11.942000 2.398000 # HT SPE
112 112 2 -0.847600 1.096000 7.353000 8.316000 # OT SPE
113 113 1 0.423800 0.611000 6.526000 8.357000 # HT SPE
114 114 1 0.423800 0.504000 8.059000 8.046000 # HT SPE
115 115 2 -0.847600 6.963000 16.073000 12.626000 # OT SPE
116 116 1 0.423800 7.189000 15.317000 12.079000 # HT SPE
117 117 1 0.423800 7.311000 16.872999 12.225000 # HT SPE
118 118 2 -0.847600 15.958000 1.197000 1.180000 # OT SPE
119 119 1 0.423800 16.337000 2.079000 1.218000 # HT SPE
120 120 1 0.423800 16.608999 0.584000 0.831000 # HT SPE
121 121 2 -0.847600 4.205000 19.502001 3.172000 # OT SPE
122 122 1 0.423800 5.046000 19.113001 3.425000 # HT SPE
123 123 1 0.423800 3.580000 18.805000 2.960000 # HT SPE
124 124 2 -0.847600 20.003000 14.804000 11.679000 # OT SPE
125 125 1 0.423800 20.000999 14.722000 12.636000 # HT SPE
126 126 1 0.423800 19.999001 13.929000 11.284000 # HT SPE
127 127 2 -0.847600 9.224000 6.363000 18.865000 # OT SPE
128 128 1 0.423800 9.287000 5.838000 19.666000 # HT SPE
129 129 1 0.423800 9.927000 7.016000 18.855000 # HT SPE
130 130 2 -0.847600 12.401000 13.201000 19.282000 # OT SPE
131 131 1 0.423800 12.540000 14.114000 19.018999 # HT SPE
132 132 1 0.423800 11.476000 13.069000 19.503000 # HT SPE
133 133 2 -0.847600 18.205999 5.512000 11.618000 # OT SPE
134 134 1 0.423800 18.156000 6.457000 11.456000 # HT SPE
135 135 1 0.423800 17.327000 5.169000 11.791000 # HT SPE
136 136 2 -0.847600 3.814000 12.335000 1.613000 # OT SPE
137 137 1 0.423800 3.119000 12.111000 2.237000 # HT SPE
138 138 1 0.423800 3.576000 13.138000 1.144000 # HT SPE
139 139 2 -0.847600 19.981001 12.597000 8.572000 # OT SPE
140 140 1 0.423800 19.174000 12.374000 8.102000 # HT SPE
141 141 1 0.423800 19.893999 12.346000 9.494000 # HT SPE
142 142 2 -0.847600 2.803000 2.756000 15.803000 # OT SPE
143 143 1 0.423800 2.831000 3.713000 15.736000 # HT SPE
144 144 1 0.423800 2.696000 2.502000 16.723000 # HT SPE
145 145 2 -0.847600 3.640000 12.755000 5.809000 # OT SPE
146 146 1 0.423800 3.102000 11.981000 5.990000 # HT SPE
147 147 1 0.423800 3.837000 12.795000 4.870000 # HT SPE
148 148 2 -0.847600 1.707000 0.542000 15.083000 # OT SPE
149 149 1 0.423800 1.233000 -0.004000 14.451000 # HT SPE
150 150 1 0.423800 2.343000 0.002000 15.559000 # HT SPE
151 151 2 -0.847600 10.854000 0.613000 12.923000 # OT SPE
152 152 1 0.423800 11.669000 0.199000 12.629000 # HT SPE
153 153 1 0.423800 10.209000 0.590000 12.213000 # HT SPE
154 154 2 -0.847600 15.641000 5.728000 9.455000 # OT SPE
155 155 1 0.423800 15.302000 5.357000 8.637000 # HT SPE
156 156 1 0.423800 15.390000 5.165000 10.190000 # HT SPE
157 157 2 -0.847600 9.499000 4.492000 6.818000 # OT SPE
158 158 1 0.423800 9.262000 3.602000 7.091000 # HT SPE
159 159 1 0.423800 9.059000 5.129000 7.384000 # HT SPE
160 160 2 -0.847600 0.614000 17.784000 0.245000 # OT SPE
161 161 1 0.423800 0.029000 17.025000 0.181000 # HT SPE
162 162 1 0.423800 0.121000 18.584999 0.051000 # HT SPE
163 163 2 -0.847600 11.235000 6.648000 8.354000 # OT SPE
164 164 1 0.423800 10.777000 6.595000 7.511000 # HT SPE
165 165 1 0.423800 12.121000 6.991000 8.216000 # HT SPE
166 166 2 -0.847600 6.702000 15.176000 18.216000 # OT SPE
167 167 1 0.423800 7.274000 15.921000 18.414000 # HT SPE
168 168 1 0.423800 7.237000 14.421000 17.962000 # HT SPE
169 169 2 -0.847600 12.754000 15.671000 3.492000 # OT SPE
170 170 1 0.423800 12.647000 15.344000 4.388000 # HT SPE
171 171 1 0.423800 13.358000 15.099000 3.012000 # HT SPE
172 172 2 -0.847600 15.148000 6.029000 14.308000 # OT SPE
173 173 1 0.423800 14.356000 6.563000 14.213000 # HT SPE
174 174 1 0.423800 15.069000 5.239000 13.768000 # HT SPE
175 175 2 -0.847600 17.917000 18.495001 9.710000 # OT SPE
176 176 1 0.423800 18.674999 18.479000 10.299000 # HT SPE
177 177 1 0.423800 17.247999 17.886000 10.033000 # HT SPE
178 178 2 -0.847600 10.573000 10.524000 15.807000 # OT SPE
179 179 1 0.423800 11.218000 10.940000 16.384001 # HT SPE
180 180 1 0.423800 11.004000 9.846000 15.282000 # HT SPE
181 181 2 -0.847600 5.772000 14.433000 13.552000 # OT SPE
182 182 1 0.423800 4.984000 14.133000 13.093000 # HT SPE
183 183 1 0.423800 5.554000 15.189000 14.102000 # HT SPE
184 184 2 -0.847600 13.590000 9.733000 2.603000 # OT SPE
185 185 1 0.423800 13.967000 10.535000 2.972000 # HT SPE
186 186 1 0.423800 14.291000 9.098000 2.437000 # HT SPE
187 187 2 -0.847600 16.110001 0.947000 6.673000 # OT SPE
188 188 1 0.423800 16.563999 1.655000 7.137000 # HT SPE
189 189 1 0.423800 16.601999 0.129000 6.778000 # HT SPE
190 190 2 -0.847600 0.679000 5.943000 1.044000 # OT SPE
191 191 1 0.423800 1.436000 6.306000 0.577000 # HT SPE
192 192 1 0.423800 0.007000 6.621000 1.141000 # HT SPE
193 193 2 -0.847600 6.468000 16.215000 16.011999 # OT SPE
194 194 1 0.423800 6.169000 17.087999 15.748000 # HT SPE
195 195 1 0.423800 5.711000 15.673000 16.243999 # HT SPE
196 196 2 -0.847600 8.416000 11.277000 4.940000 # OT SPE
197 197 1 0.423800 7.479000 11.459000 5.039000 # HT SPE
198 198 1 0.423800 8.911000 12.097000 5.011000 # HT SPE
199 199 2 -0.847600 1.183000 13.102000 1.631000 # OT SPE
200 200 1 0.423800 0.622000 12.600000 1.035000 # HT SPE
201 201 1 0.423800 1.019000 12.824000 2.535000 # HT SPE
202 202 2 -0.847600 12.204000 5.245000 13.617000 # OT SPE
203 203 1 0.423800 11.383000 5.726000 13.750000 # HT SPE
204 204 1 0.423800 12.668000 5.166000 14.453000 # HT SPE
205 205 2 -0.847600 15.677000 17.745001 13.144000 # OT SPE
206 206 1 0.423800 16.622999 17.796000 13.297000 # HT SPE
207 207 1 0.423800 15.272000 17.195999 13.819000 # HT SPE
208 208 2 -0.847600 4.418000 15.417000 7.851000 # OT SPE
209 209 1 0.423800 4.992000 14.929000 7.256000 # HT SPE
210 210 1 0.423800 4.898000 16.162001 8.220000 # HT SPE
211 211 2 -0.847600 17.382000 9.520000 3.839000 # OT SPE
212 212 1 0.423800 18.315001 9.382000 3.659000 # HT SPE
213 213 1 0.423800 17.274000 10.296000 4.393000 # HT SPE
214 214 2 -0.847600 19.691000 4.251000 4.617000 # OT SPE
215 215 1 0.423800 19.969999 4.094000 3.711000 # HT SPE
216 216 1 0.423800 19.205999 3.488000 4.939000 # HT SPE
217 217 2 -0.847600 19.063999 11.683000 19.420000 # OT SPE
218 218 1 0.423800 19.555000 11.079000 19.983000 # HT SPE
219 219 1 0.423800 19.429001 11.662000 18.533001 # HT SPE
220 220 2 -0.847600 19.084999 7.509000 14.499000 # OT SPE
221 221 1 0.423800 19.445000 7.612000 13.614000 # HT SPE
222 222 1 0.423800 18.208000 7.123000 14.445000 # HT SPE
223 223 2 -0.847600 7.608000 4.883000 9.111000 # OT SPE
224 224 1 0.423800 6.689000 5.161000 9.080000 # HT SPE
225 225 1 0.423800 8.117000 5.515000 9.622000 # HT SPE
226 226 2 -0.847600 17.804001 4.755000 9.592000 # OT SPE
227 227 1 0.423800 17.848000 5.617000 9.170000 # HT SPE
228 228 1 0.423800 18.018999 4.074000 8.951000 # HT SPE
229 229 2 -0.847600 11.350000 11.306000 3.879000 # OT SPE
230 230 1 0.423800 10.737000 10.961000 3.226000 # HT SPE
231 231 1 0.423800 11.681000 10.586000 4.421000 # HT SPE
232 232 2 -0.847600 3.031000 15.101000 19.229000 # OT SPE
233 233 1 0.423800 3.106000 14.167000 19.021999 # HT SPE
234 234 1 0.423800 3.891000 15.443000 19.483999 # HT SPE
235 235 2 -0.847600 19.677000 16.427000 5.976000 # OT SPE
236 236 1 0.423800 19.973000 15.518000 5.886000 # HT SPE
237 237 1 0.423800 19.937000 16.764999 6.836000 # HT SPE
238 238 2 -0.847600 6.319000 13.884000 5.112000 # OT SPE
239 239 1 0.423800 7.123000 14.211000 5.524000 # HT SPE
240 240 1 0.423800 5.784000 13.432000 5.769000 # HT SPE
241 241 2 -0.847600 1.132000 10.454000 3.427000 # OT SPE
242 242 1 0.423800 0.948000 10.616000 2.499000 # HT SPE
243 243 1 0.423800 2.031000 10.723000 3.627000 # HT SPE
244 244 2 -0.847600 9.126000 6.726000 11.681000 # OT SPE
245 245 1 0.423800 9.656000 6.508000 10.910000 # HT SPE
246 246 1 0.423800 9.687000 6.744000 12.460000 # HT SPE
247 247 2 -0.847600 12.161000 9.730000 18.805000 # OT SPE
248 248 1 0.423800 13.080000 10.000000 18.871000 # HT SPE
249 249 1 0.423800 11.798000 9.610000 19.684999 # HT SPE
250 250 2 -0.847600 17.163000 18.955999 15.386000 # OT SPE
251 251 1 0.423800 16.284000 19.250000 15.136000 # HT SPE
252 252 1 0.423800 17.135000 18.025000 15.618000 # HT SPE
253 253 2 -0.847600 11.029000 17.007999 19.020000 # OT SPE
254 254 1 0.423800 10.225000 17.349001 18.620001 # HT SPE
255 255 1 0.423800 11.040000 16.051001 18.952000 # HT SPE
256 256 2 -0.847600 4.795000 6.558000 19.930000 # OT SPE
257 257 1 0.423800 5.493000 5.899000 19.957001 # HT SPE
258 258 1 0.423800 3.944000 6.121000 19.855000 # HT SPE
259 259 2 -0.847600 14.208000 15.351000 11.879000 # OT SPE
260 260 1 0.423800 14.505000 14.662000 11.280000 # HT SPE
261 261 1 0.423800 14.862000 16.052999 11.910000 # HT SPE
262 262 2 -0.847600 14.974000 12.281000 0.516000 # OT SPE
263 263 1 0.423800 15.448000 12.579000 1.296000 # HT SPE
264 264 1 0.423800 14.860000 11.329000 0.555000 # HT SPE
265 265 2 -0.847600 12.308000 16.624001 11.433000 # OT SPE
266 266 1 0.423800 12.548000 17.474001 11.058000 # HT SPE
267 267 1 0.423800 11.360000 16.496000 11.355000 # HT SPE
268 268 2 -0.847600 12.953000 14.574000 8.295000 # OT SPE
269 269 1 0.423800 12.244000 14.185000 7.778000 # HT SPE
270 270 1 0.423800 13.650000 13.926000 8.421000 # HT SPE
271 271 2 -0.847600 5.511000 12.443000 9.759000 # OT SPE
272 272 1 0.423800 6.056000 12.626000 8.990000 # HT SPE
273 273 1 0.423800 5.278000 13.268000 10.190000 # HT SPE
274 274 2 -0.847600 5.491000 15.453000 1.870000 # OT SPE
275 275 1 0.423800 5.483000 16.386000 1.642000 # HT SPE
276 276 1 0.423800 4.602000 15.171000 2.096000 # HT SPE
277 277 2 -0.847600 19.978001 9.694000 5.749000 # OT SPE
278 278 1 0.423800 19.569000 10.506000 5.439000 # HT SPE
279 279 1 0.423800 19.295000 9.062000 5.986000 # HT SPE
280 280 2 -0.847600 8.155000 12.440000 14.188000 # OT SPE
281 281 1 0.423800 7.397000 13.010000 14.037000 # HT SPE
282 282 1 0.423800 8.963000 12.934000 14.032000 # HT SPE
283 283 2 -0.847600 2.937000 7.497000 18.462999 # OT SPE
284 284 1 0.423800 3.651000 7.550000 17.823000 # HT SPE
285 285 1 0.423800 2.875000 8.326000 18.941999 # HT SPE
286 286 2 -0.847600 15.778000 15.412000 16.021000 # OT SPE
287 287 1 0.423800 16.707001 15.220000 15.874000 # HT SPE
288 288 1 0.423800 15.649000 16.363001 16.051001 # HT SPE
289 289 2 -0.847600 0.936000 12.747000 11.611000 # OT SPE
290 290 1 0.423800 0.208000 12.255000 11.223000 # HT SPE
291 291 1 0.423800 1.639000 12.140000 11.855000 # HT SPE
292 292 2 -0.847600 15.498000 8.502000 14.285000 # OT SPE
293 293 1 0.423800 15.334000 9.410000 14.019000 # HT SPE
294 294 1 0.423800 15.885000 8.018000 13.551000 # HT SPE
295 295 2 -0.847600 15.013000 16.237000 9.113000 # OT SPE
296 296 1 0.423800 15.028000 16.013000 8.179000 # HT SPE
297 297 1 0.423800 15.253000 17.159000 9.225000 # HT SPE
298 298 2 -0.847600 4.179000 4.530000 12.457000 # OT SPE
299 299 1 0.423800 3.309000 4.633000 12.852000 # HT SPE
300 300 1 0.423800 4.484000 5.380000 12.131000 # HT SPE
301 301 2 -0.847600 4.461000 18.771999 13.828000 # OT SPE
302 302 1 0.423800 4.060000 19.636000 13.949000 # HT SPE
303 303 1 0.423800 4.759000 18.681999 12.920000 # HT SPE
304 304 2 -0.847600 2.870000 6.455000 6.627000 # OT SPE
305 305 1 0.423800 2.921000 6.366000 7.582000 # HT SPE
306 306 1 0.423800 3.348000 5.732000 6.213000 # HT SPE
307 307 2 -0.847600 4.461000 7.544000 15.779000 # OT SPE
308 308 1 0.423800 4.758000 8.216000 15.161000 # HT SPE
309 309 1 0.423800 5.126000 6.856000 15.849000 # HT SPE
310 310 2 -0.847600 8.106000 0.619000 8.669000 # OT SPE
311 311 1 0.423800 8.139000 1.214000 9.422000 # HT SPE
312 312 1 0.423800 7.614000 1.032000 7.956000 # HT SPE
313 313 2 -0.847600 14.480000 10.322000 16.718000 # OT SPE
314 314 1 0.423800 15.223000 10.907000 16.556000 # HT SPE
315 315 1 0.423800 14.413000 9.684000 16.003000 # HT SPE
316 316 2 -0.847600 11.424000 19.724001 17.433001 # OT SPE
317 317 1 0.423800 11.493000 18.768000 17.496000 # HT SPE
318 318 1 0.423800 10.507000 19.969999 17.292000 # HT SPE
319 319 2 -0.847600 1.492000 10.376000 5.765000 # OT SPE
320 320 1 0.423800 0.873000 11.104000 5.845000 # HT SPE
321 321 1 0.423800 1.885000 10.193000 6.621000 # HT SPE
322 322 2 -0.847600 13.924000 5.167000 0.155000 # OT SPE
323 323 1 0.423800 14.874000 5.259000 0.043000 # HT SPE
324 324 1 0.423800 13.674000 4.250000 0.017000 # HT SPE
325 325 2 -0.847600 1.294000 14.876000 5.131000 # OT SPE
326 326 1 0.423800 1.035000 14.518000 4.279000 # HT SPE
327 327 1 0.423800 2.122000 14.477000 5.407000 # HT SPE
328 328 2 -0.847600 15.508000 10.572000 11.004000 # OT SPE
329 329 1 0.423800 14.898000 9.902000 10.685000 # HT SPE
330 330 1 0.423800 16.306999 10.149000 11.326000 # HT SPE
331 331 2 -0.847600 17.971001 10.142000 8.195000 # OT SPE
332 332 1 0.423800 18.906000 10.193000 7.982000 # HT SPE
333 333 1 0.423800 17.516001 9.634000 7.519000 # HT SPE
334 334 2 -0.847600 5.629000 3.490000 15.814000 # OT SPE
335 335 1 0.423800 6.570000 3.320000 15.720000 # HT SPE
336 336 1 0.423800 5.162000 2.658000 15.914000 # HT SPE
337 337 2 -0.847600 3.165000 2.578000 10.378000 # OT SPE
338 338 1 0.423800 4.020000 3.007000 10.291000 # HT SPE
339 339 1 0.423800 2.696000 2.949000 11.129000 # HT SPE
340 340 2 -0.847600 8.791000 15.587000 15.096000 # OT SPE
341 341 1 0.423800 8.773000 14.683000 15.420000 # HT SPE
342 342 1 0.423800 8.416000 15.619000 14.213000 # HT SPE
343 343 2 -0.847600 11.039000 3.925000 10.536000 # OT SPE
344 344 1 0.423800 10.088000 4.033000 10.610000 # HT SPE
345 345 1 0.423800 11.347000 4.349000 9.732000 # HT SPE
346 346 2 -0.847600 0.549000 17.176001 8.526000 # OT SPE
347 347 1 0.423800 0.421000 18.075001 8.837000 # HT SPE
348 348 1 0.423800 0.475000 17.155001 7.569000 # HT SPE
349 349 2 -0.847600 9.493000 1.220000 14.642000 # OT SPE
350 350 1 0.423800 9.394000 1.071000 15.586000 # HT SPE
351 351 1 0.423800 8.709000 1.661000 14.304000 # HT SPE
352 352 2 -0.847600 7.532000 7.017000 3.894000 # OT SPE
353 353 1 0.423800 7.705000 7.262000 2.982000 # HT SPE
354 354 1 0.423800 6.587000 7.048000 4.060000 # HT SPE
355 355 2 -0.847600 3.191000 9.097000 0.995000 # OT SPE
356 356 1 0.423800 3.592000 8.299000 1.347000 # HT SPE
357 357 1 0.423800 3.194000 9.061000 0.035000 # HT SPE
358 358 2 -0.847600 18.934999 7.652000 17.825001 # OT SPE
359 359 1 0.423800 19.815001 7.810000 18.174000 # HT SPE
360 360 1 0.423800 18.740999 6.713000 17.856001 # HT SPE
361 361 2 -0.847600 4.231000 0.909000 9.423000 # OT SPE
362 362 1 0.423800 5.154000 0.951000 9.686000 # HT SPE
363 363 1 0.423800 4.005000 0.006000 9.190000 # HT SPE
364 364 2 -0.847600 5.458000 10.043000 9.675000 # OT SPE
365 365 1 0.423800 4.664000 10.124000 9.141000 # HT SPE
366 366 1 0.423800 6.087000 9.472000 9.228000 # HT SPE
367 367 2 -0.847600 4.656000 18.837999 8.229000 # OT SPE
368 368 1 0.423800 4.204000 18.232000 7.637000 # HT SPE
369 369 1 0.423800 5.600000 18.664000 8.206000 # HT SPE
370 370 2 -0.847600 17.537001 4.148000 14.158000 # OT SPE
371 371 1 0.423800 16.677999 3.725000 14.078000 # HT SPE
372 372 1 0.423800 17.448999 5.087000 13.984000 # HT SPE
373 373 2 -0.847600 5.551000 11.533000 16.625999 # OT SPE
374 374 1 0.423800 6.277000 12.101000 16.358999 # HT SPE
375 375 1 0.423800 4.789000 12.071000 16.851000 # HT SPE
376 376 2 -0.847600 15.544000 4.957000 2.270000 # OT SPE
377 377 1 0.423800 14.587000 5.033000 2.270000 # HT SPE
378 378 1 0.423800 15.934000 5.824000 2.135000 # HT SPE
379 379 2 -0.847600 14.010000 0.952000 0.021000 # OT SPE
380 380 1 0.423800 14.097000 0.007000 0.168000 # HT SPE
381 381 1 0.423800 13.094000 1.211000 0.143000 # HT SPE
382 382 2 -0.847600 12.086000 1.913000 16.610001 # OT SPE
383 383 1 0.423800 12.667000 1.219000 16.289000 # HT SPE
384 384 1 0.423800 12.610000 2.618000 16.996000 # HT SPE
385 385 2 -0.847600 12.925000 3.337000 5.524000 # OT SPE
386 386 1 0.423800 12.071000 2.917000 5.649000 # HT SPE
387 387 1 0.423800 12.837000 4.285000 5.644000 # HT SPE
388 388 2 -0.847600 5.746000 7.387000 6.422000 # OT SPE
389 389 1 0.423800 5.445000 7.294000 7.329000 # HT SPE
390 390 1 0.423800 5.864000 8.318000 6.218000 # HT SPE
391 391 2 -0.847600 15.325000 0.014000 4.255000 # OT SPE
392 392 1 0.423800 15.811000 0.177000 3.444000 # HT SPE
393 393 1 0.423800 15.115000 0.851000 4.677000 # HT SPE
394 394 2 -0.847600 17.339001 0.928000 4.841000 # OT SPE
395 395 1 0.423800 17.316000 1.769000 4.378000 # HT SPE
396 396 1 0.423800 18.202000 0.808000 5.243000 # HT SPE
397 397 2 -0.847600 3.293000 8.528000 7.371000 # OT SPE
398 398 1 0.423800 2.818000 8.823000 8.151000 # HT SPE
399 399 1 0.423800 4.066000 9.082000 7.238000 # HT SPE
400 400 2 -0.847600 18.298000 3.130000 20.011000 # OT SPE
401 401 1 0.423800 19.257999 3.130000 20.009001 # HT SPE
402 402 1 0.423800 17.978001 4.034000 20.025000 # HT SPE
403 403 2 -0.847600 5.125000 20.006001 5.512000 # OT SPE
404 404 1 0.423800 4.265000 19.679001 5.789000 # HT SPE
405 405 1 0.423800 5.722000 20.011999 6.264000 # HT SPE
406 406 2 -0.847600 17.948999 13.646000 4.907000 # OT SPE
407 407 1 0.423800 18.556000 14.350000 4.666000 # HT SPE
408 408 1 0.423800 17.103001 14.025000 5.158000 # HT SPE
409 409 2 -0.847600 5.028000 10.736000 6.090000 # OT SPE
410 410 1 0.423800 5.889000 10.579000 6.485000 # HT SPE
411 411 1 0.423800 4.877000 10.100000 5.387000 # HT SPE
412 412 2 -0.847600 19.183001 17.416000 12.529000 # OT SPE
413 413 1 0.423800 19.434999 18.271000 12.886000 # HT SPE
414 414 1 0.423800 19.971001 16.902000 12.343000 # HT SPE
415 415 2 -0.847600 10.800000 3.645000 13.058000 # OT SPE
416 416 1 0.423800 10.447000 2.794000 13.327000 # HT SPE
417 417 1 0.423800 10.078000 4.226000 12.807000 # HT SPE
418 418 2 -0.847600 10.873000 0.541000 2.129000 # OT SPE
419 419 1 0.423800 11.139000 1.392000 2.485000 # HT SPE
420 420 1 0.423800 11.653000 0.042000 1.875000 # HT SPE
421 421 2 -0.847600 16.509001 4.000000 7.223000 # OT SPE
422 422 1 0.423800 15.625000 4.092000 6.860000 # HT SPE
423 423 1 0.423800 17.014000 4.797000 7.044000 # HT SPE
424 424 2 -0.847600 9.554000 16.235001 6.602000 # OT SPE
425 425 1 0.423800 10.042000 15.804000 7.308000 # HT SPE
426 426 1 0.423800 10.059000 16.983000 6.275000 # HT SPE
427 427 2 -0.847600 7.535000 16.688999 7.487000 # OT SPE
428 428 1 0.423800 7.139000 15.816000 7.539000 # HT SPE
429 429 1 0.423800 6.969000 17.268000 6.971000 # HT SPE
430 430 2 -0.847600 3.818000 12.162000 13.579000 # OT SPE
431 431 1 0.423800 2.941000 11.840000 13.799000 # HT SPE
432 432 1 0.423800 3.923000 12.177000 12.625000 # HT SPE
433 433 2 -0.847600 6.560000 0.449000 14.801000 # OT SPE
434 434 1 0.423800 6.238000 1.256000 14.392000 # HT SPE
435 435 1 0.423800 5.843000 0.025000 15.280000 # HT SPE
436 436 2 -0.847600 3.759000 6.485000 3.317000 # OT SPE
437 437 1 0.423800 4.414000 5.842000 3.036000 # HT SPE
438 438 1 0.423800 4.175000 7.141000 3.880000 # HT SPE
439 439 2 -0.847600 3.221000 17.031000 12.307000 # OT SPE
440 440 1 0.423800 4.103000 16.653999 12.351000 # HT SPE
441 441 1 0.423800 2.756000 16.854000 13.128000 # HT SPE
442 442 2 -0.847600 10.681000 11.756000 13.191000 # OT SPE
443 443 1 0.423800 11.569000 11.598000 12.863000 # HT SPE
444 444 1 0.423800 10.175000 10.942000 13.150000 # HT SPE
445 445 2 -0.847600 17.872000 13.035000 17.791000 # OT SPE
446 446 1 0.423800 18.566999 13.109000 17.132000 # HT SPE
447 447 1 0.423800 17.424999 13.880000 17.881001 # HT SPE
448 448 2 -0.847600 2.996000 15.036000 11.253000 # OT SPE
449 449 1 0.423800 3.111000 14.316000 11.879000 # HT SPE
450 450 1 0.423800 2.100000 15.374000 11.316000 # HT SPE
451 451 2 -0.847600 7.053000 0.863000 1.365000 # OT SPE
452 452 1 0.423800 7.252000 -0.007000 1.720000 # HT SPE
453 453 1 0.423800 6.177000 1.133000 1.651000 # HT SPE
454 454 2 -0.847600 8.246000 10.359000 0.630000 # OT SPE
455 455 1 0.423800 7.379000 10.753000 0.509000 # HT SPE
456 456 1 0.423800 8.149000 9.426000 0.832000 # HT SPE
457 457 2 -0.847600 0.746000 8.838000 0.577000 # OT SPE
458 458 1 0.423800 0.921000 9.758000 0.364000 # HT SPE
459 459 1 0.423800 0.277000 8.787000 1.413000 # HT SPE
460 460 2 -0.847600 13.321000 3.833000 8.031000 # OT SPE
461 461 1 0.423800 12.610000 4.468000 7.920000 # HT SPE
462 462 1 0.423800 13.022000 2.964000 7.755000 # HT SPE
463 463 2 -0.847600 7.038000 0.879000 4.407000 # OT SPE
464 464 1 0.423800 6.198000 1.147000 4.786000 # HT SPE
465 465 1 0.423800 6.946000 0.013000 4.004000 # HT SPE
466 466 2 -0.847600 12.585000 10.041000 6.773000 # OT SPE
467 467 1 0.423800 12.324000 10.769000 7.342000 # HT SPE
468 468 1 0.423800 13.222000 10.352000 6.126000 # HT SPE
469 469 2 -0.847600 17.718000 16.091999 7.573000 # OT SPE
470 470 1 0.423800 18.169001 16.711000 8.152000 # HT SPE
471 471 1 0.423800 18.315001 15.376000 7.343000 # HT SPE
472 472 2 -0.847600 10.781000 20.009001 6.888000 # OT SPE
473 473 1 0.423800 10.460000 19.105000 6.846000 # HT SPE
474 474 1 0.423800 11.722000 20.007000 7.074000 # HT SPE
475 475 2 -0.847600 9.857000 4.177000 0.409000 # OT SPE
476 476 1 0.423800 9.366000 4.992000 0.536000 # HT SPE
477 477 1 0.423800 9.552000 3.519000 1.038000 # HT SPE
478 478 2 -0.847600 8.084000 18.882000 17.313999 # OT SPE
479 479 1 0.423800 7.154000 18.840000 17.076000 # HT SPE
480 480 1 0.423800 8.406000 17.999001 17.504999 # HT SPE
481 481 2 -0.847600 0.385000 17.877001 12.251000 # OT SPE
482 482 1 0.423800 1.154000 17.552999 11.776000 # HT SPE
483 483 1 0.423800 0.642000 18.610001 12.815000 # HT SPE
484 484 2 -0.847600 0.756000 8.353000 10.796000 # OT SPE
485 485 1 0.423800 0.035000 8.981000 10.877000 # HT SPE
486 486 1 0.423800 1.333000 8.428000 11.560000 # HT SPE
487 487 2 -0.847600 3.254000 12.696000 8.941000 # OT SPE
488 488 1 0.423800 2.956000 13.166000 9.724000 # HT SPE
489 489 1 0.423800 3.902000 13.229000 8.475000 # HT SPE
490 490 2 -0.847600 0.285000 14.931000 18.559000 # OT SPE
491 491 1 0.423800 0.164000 15.507000 17.799999 # HT SPE
492 492 1 0.423800 0.924000 14.248000 18.344000 # HT SPE
493 493 2 -0.847600 11.647000 8.709000 10.958000 # OT SPE
494 494 1 0.423800 10.789000 8.377000 11.236000 # HT SPE
495 495 1 0.423800 11.566000 9.631000 10.704000 # HT SPE
496 496 2 -0.847600 6.928000 18.156000 0.332000 # OT SPE
497 497 1 0.423800 6.013000 18.062000 0.057000 # HT SPE
498 498 1 0.423800 7.268000 19.000999 0.030000 # HT SPE
499 499 2 -0.847600 10.338000 0.677000 9.967000 # OT SPE
500 500 1 0.423800 10.950000 0.030000 9.608000 # HT SPE
501 501 1 0.423800 10.827000 1.440000 10.281000 # HT SPE
502 502 2 -0.847600 16.674999 11.299000 6.351000 # OT SPE
503 503 1 0.423800 16.058001 12.005000 6.558000 # HT SPE
504 504 1 0.423800 17.541000 11.672000 6.173000 # HT SPE
505 505 2 -0.847600 3.929000 2.124000 13.749000 # OT SPE
506 506 1 0.423800 3.083000 2.563000 13.636000 # HT SPE
507 507 1 0.423800 4.636000 2.770000 13.691000 # HT SPE
508 508 2 -0.847600 17.495001 7.916000 5.432000 # OT SPE
509 509 1 0.423800 17.156000 7.477000 4.648000 # HT SPE
510 510 1 0.423800 16.787001 8.020000 6.072000 # HT SPE
511 511 2 -0.847600 7.968000 9.224000 12.198000 # OT SPE
512 512 1 0.423800 7.448000 9.994000 12.438000 # HT SPE
513 513 1 0.423800 8.642000 9.478000 11.562000 # HT SPE
514 514 2 -0.847600 0.667000 4.405000 9.983000 # OT SPE
515 515 1 0.423800 0.784000 3.479000 9.754000 # HT SPE
516 516 1 0.423800 0.009000 4.482000 10.677000 # HT SPE
517 517 2 -0.847600 1.974000 14.668000 8.443000 # OT SPE
518 518 1 0.423800 2.401000 15.376000 8.932000 # HT SPE
519 519 1 0.423800 2.413000 14.554000 7.597000 # HT SPE
520 520 2 -0.847600 18.787001 7.620000 8.551000 # OT SPE
521 521 1 0.423800 19.615999 7.359000 8.143000 # HT SPE
522 522 1 0.423800 18.066999 7.480000 7.932000 # HT SPE
523 523 2 -0.847600 11.184000 13.215000 10.477000 # OT SPE